<LesHouchesEvents version="3.0">
<header>
</header>
<init>
     2212     2212  0.65000000000E+04  0.65000000000E+04 0 0  200400  200400  3   1
  0.15594965311E+00  0.93175855262E-03  0.15835000000E-03   0
</init>
<event>
10   0  0.1583500E-03  0.2458064E+03  0.7818609E-02  0.1121237E+00
       21   -1    0    0  501  503  0.00000000000E+00  0.00000000000E+00  0.27455544051E+02  0.27455544051E+02  0.00000000000E+00 0.  1.
        2   -1    0    0  503    0  0.00000000000E+00  0.00000000000E+00 -0.23672641093E+04  0.23672641093E+04  0.25500000920E-02 0.  1.
       25    2    1    2    0    0 -0.17420618282E+03  0.21361362457E+02 -0.16162131265E+04  0.16305134483E+04  0.12500053107E+03 0.  0.
        6    2    1    2  501    0  0.17420618282E+03 -0.21361362457E+02 -0.72359543870E+03  0.76420620504E+03  0.17209492431E+03 0.  0.
       24    2    4    4    0    0  0.50934871541E+02 -0.58349632640E+02 -0.41579591395E+03  0.43054981629E+03  0.80547262427E+02 0.  0.
      -13    1    5    5    0    0  0.10268933539E+02 -0.30403150360E+02 -0.38857995891E+02  0.50396007348E+02  0.10565999895E+00 0.  1.
       14    1    5    5    0    0  0.40665938001E+02 -0.27946482280E+02 -0.37693791806E+03  0.38015380894E+03  0.00000000000E+00 0. -1.
        5    1    4    4  501    0  0.12327131128E+03  0.36988270183E+02 -0.30779952475E+03  0.33365638875E+03  0.46999998093E+01 0. -1.
        5    1    3    3  502    0  0.85960770453E+01 -0.24976858008E+02 -0.20378908299E+03  0.20554760111E+03  0.46999998093E+01 0.  1.
       -5    1    3    3    0  502 -0.18280225986E+03  0.46338220465E+02 -0.14124240435E+04  0.14249658472E+04  0.46999998093E+01 0.  1.
</event>
<event>
10   0  0.1583500E-03  0.2340789E+03  0.7818609E-02  0.1129674E+00
        2   -1    0    0  503    0  0.00000000000E+00  0.00000000000E+00  0.70862286271E+03  0.70862286272E+03  0.00000000000E+00 0. -1.
       21   -1    0    0  501  503  0.00000000000E+00  0.00000000000E+00 -0.80160571312E+02  0.80160571312E+02  0.25500000920E-02 0. -1.
       25    2    1    2    0    0  0.84325379675E+02 -0.13511563032E+03  0.45317995776E+03  0.49635081106E+03  0.12500020124E+03 0.  0.
        6    2    1    2  501    0 -0.84325379675E+02  0.13511563032E+03  0.17528233364E+03  0.29243262297E+03  0.17153990579E+03 0.  0.
       24    2    4    4    0    0 -0.94283642176E+02  0.94249588362E+02  0.19281605060E+03  0.24662081657E+03  0.76625111491E+02 0.  0.
      -13    1    5    5    0    0 -0.37110456695E+02  0.16804745242E+02  0.11760312922E+03  0.12445920065E+03  0.10565999895E+00 0.  1.
       14    1    5    5    0    0 -0.57173185481E+02  0.77444843120E+02  0.75212921375E+02  0.12216161593E+03  0.00000000000E+00 0. -1.
        5    1    4    4  501    0  0.99582625009E+01  0.40866041954E+02 -0.17533716956E+02  0.45811806399E+02  0.46999998093E+01 0. -1.
        5    1    3    3  502    0  0.15583871788E+02 -0.74851327211E+02  0.35058298132E+03  0.35885386306E+03  0.46999998093E+01 0. -1.
       -5    1    3    3    0  502  0.68741507887E+02 -0.60264303106E+02  0.10259697644E+03  0.13749694800E+03  0.46999998093E+01 0. -1.
</event>
<event>
10   0  0.1583500E-03  0.2406596E+03  0.7818609E-02  0.1124910E+00
        2   -1    0    0  503    0  0.00000000000E+00  0.00000000000E+00  0.27778762531E+04  0.27778762531E+04  0.00000000000E+00 0.  1.
       21   -1    0    0  501  503  0.00000000000E+00  0.00000000000E+00 -0.64443051363E+02  0.64443051363E+02  0.25500000920E-02 0.  1.
       25    2    1    2    0    0 -0.13728153388E+03 -0.97139276552E+02  0.25326933717E+04  0.25413476253E+04  0.12501911415E+03 0.  0.
        6    2    1    2  501    0  0.13728153388E+03  0.97139276552E+02  0.18073983000E+03  0.30097167914E+03  0.17214763113E+03 0.  0.
       24    2    4    4    0    0  0.11167215258E+03  0.21708455561E+02  0.49100485328E+02  0.14703449640E+03  0.79160335819E+02 0.  0.
      -13    1    5    5    0    0  0.70822946528E+02  0.28544872942E+02 -0.76900973769E+01  0.76745347012E+02  0.10565999895E+00 0.  1.
       14    1    5    5    0    0  0.40849206057E+02 -0.68364173809E+01  0.56790582705E+02  0.70289149391E+02  0.00000000000E+00 0. -1.
        5    1    4    4  501    0  0.25609381295E+02  0.75430820990E+02  0.13163934467E+03  0.15393718274E+03  0.46999998093E+01 0. -1.
        5    1    3    3  502    0 -0.97220048470E+02  0.30379202606E+01  0.14556438428E+04  0.14588975474E+04  0.46999998093E+01 0.  1.
       -5    1    3    3    0  502 -0.40061485410E+02 -0.10017719681E+03  0.10770495290E+04  0.10824500779E+04  0.46999998093E+01 0.  1.
</event>
<event>
10   0  0.1583500E-03  0.1818866E+03  0.7818609E-02  0.1180606E+00
       21   -1    0    0  501  503  0.00000000000E+00  0.00000000000E+00  0.34200756123E+02  0.34200756123E+02  0.00000000000E+00 0.  1.
        2   -1    0    0  503    0  0.00000000000E+00  0.00000000000E+00 -0.84687935206E+03  0.84687935207E+03  0.25500000920E-02 0.  1.
       25    2    1    2    0    0 -0.33013343541E+02  0.17364292884E+02 -0.17689405713E+03  0.21978992501E+03  0.12499881667E+03 0.  0.
        6    2    1    2  501    0  0.33013343541E+02 -0.17364292884E+02 -0.63578453881E+03  0.66129018318E+03  0.17802058045E+03 0.  0.
       24    2    4    4    0    0 -0.25945820998E+02 -0.60740605748E+02 -0.20488666377E+03  0.22419436266E+03  0.62625557449E+02 0.  0.
      -13    1    5    5    0    0 -0.75999381770E+01 -0.42030742511E+02 -0.18852300765E+03  0.19330100350E+03  0.10565999895E+00 0.  1.
       14    1    5    5    0    0 -0.18345882821E+02 -0.18709863237E+02 -0.16363656117E+02  0.30893359162E+02  0.00000000000E+00 0. -1.
        5    1    4    4  501    0  0.58959164539E+02  0.43376312864E+02 -0.43089787504E+03  0.43709582052E+03  0.46999998093E+01 0. -1.
        5    1    3    3  502    0 -0.74931219583E+02  0.37029106400E+02 -0.11934504508E+03  0.14577781784E+03  0.46999998093E+01 0.  1.
       -5    1    3    3    0  502  0.41917876042E+02 -0.19664813516E+02 -0.57549012049E+02  0.74012107175E+02  0.46999998093E+01 0.  1.
</event>
<event>
10   0  0.1583500E-03  0.1770058E+03  0.7818609E-02  0.1183475E+00
        2   -1    0    0  503    0  0.00000000000E+00  0.00000000000E+00  0.95086520228E+03  0.95086520228E+03  0.00000000000E+00 0.  1.
       21   -1    0    0  501  503  0.00000000000E+00  0.00000000000E+00 -0.29475293771E+02  0.29475293771E+02  0.25500000920E-02 0.  1.
       25    2    1    2    0    0 -0.37230841185E+02 -0.24596316731E+02  0.58887775470E+03  0.60365044385E+03  0.12500293614E+03 0.  0.
        6    2    1    2  501    0  0.37230841185E+02  0.24596316731E+02  0.33251215380E+03  0.37669005220E+03  0.17128907925E+03 0.  0.
       24    2    4    4    0    0  0.11295526678E+00 -0.45328678045E+02  0.22540118284E+03  0.24341555184E+03  0.79942078009E+02 0.  0.
      -13    1    5    5    0    0  0.23955324024E+02 -0.33196011429E+02  0.20684737639E+03  0.21085938681E+03  0.10565999895E+00 0.  1.
       14    1    5    5    0    0 -0.23842368757E+02 -0.12132666616E+02  0.18553806456E+02  0.32556165025E+02  0.00000000000E+00 0. -1.
        5    1    4    4  501    0  0.37117885919E+02  0.69924994776E+02  0.10711097096E+03  0.13327450037E+03  0.46999998093E+01 0. -1.
        5    1    3    3  502    0 -0.66661353721E+01  0.26940851476E+02  0.46611771764E+03  0.46696687627E+03  0.46999998093E+01 0.  1.
       -5    1    3    3    0  502 -0.30564705813E+02 -0.51537168207E+02  0.12276003707E+03  0.13668356759E+03  0.46999998093E+01 0.  1.
</event>
<event>
10   0  0.1583500E-03  0.2431632E+03  0.7818609E-02  0.1123014E+00
       -4   -1    0    0    0  501  0.00000000000E+00  0.00000000000E+00  0.39077768402E+03  0.39077974772E+03  0.00000000000E+00 0. -1.
       21   -1    0    0  501  503  0.00000000000E+00  0.00000000000E+00 -0.23295316336E+03  0.23295316336E+03  0.12699999809E+01 0.  1.
       25    2    1    2    0    0 -0.16439338079E+03 -0.51915408098E+02  0.27986355347E+03  0.35166334257E+03  0.12499241857E+03 0.  0.
       -6    2    1    2    0  503  0.16439338079E+03  0.51915408098E+02 -0.12203903280E+03  0.27206956851E+03  0.17148740867E+03 0.  0.
      -24    2    4    4    0    0  0.53106901606E+02  0.65577768128E+01 -0.11732772839E+03  0.15171059895E+03  0.79918474399E+02 0.  0.
       11    1    5    5    0    0  0.27761686864E+01  0.25915496670E+02 -0.42163243150E+01  0.26402603493E+02  0.51099999109E-03 0. -1.
      -12    1    5    5    0    0  0.50330732919E+02 -0.19357719857E+02 -0.11311140407E+03  0.12530799546E+03  0.00000000000E+00 0.  1.
       -5    1    4    4    0  503  0.11128647919E+03  0.45357631285E+02 -0.47113044171E+01  0.12035896956E+03  0.46999998093E+01 0.  1.
        5    1    3    3  502    0 -0.11865259450E+03  0.67538806255E+01  0.94617252203E+02  0.15198212888E+03  0.46999998093E+01 0. -1.
       -5    1    3    3    0  502 -0.45740786292E+02 -0.58669288723E+02  0.18524630126E+03  0.19968121369E+03  0.46999998093E+01 0. -1.
</event>
<event>
10   0  0.1583500E-03  0.2074404E+03  0.7818609E-02  0.1151848E+00
        2   -1    0    0  503    0  0.00000000000E+00  0.00000000000E+00  0.68233596568E+03  0.68233596568E+03  0.00000000000E+00 0.  1.
       21   -1    0    0  501  503  0.00000000000E+00  0.00000000000E+00 -0.24646244189E+03  0.24646244189E+03  0.25500000920E-02 0. -1.
       25    2    1    2    0    0  0.68785157594E+02 -0.93385885917E+02  0.62514688340E+03  0.64798546986E+03  0.12499688689E+03 0.  0.
        6    2    1    2  501    0 -0.68785157594E+02  0.93385885917E+02 -0.18927335961E+03  0.28081293771E+03  0.17198598702E+03 0.  0.
       24    2    4    4    0    0 -0.14325469266E+02  0.87462556033E+02 -0.46400705557E+02  0.12772594034E+03  0.79410154143E+02 0.  0.
      -15    1    5    5    0    0 -0.55904122615E+01 -0.14934105126E+02 -0.87637501122E+01  0.18282265998E+02  0.17769999504E+01 0.  1.
       16    1    5    5    0    0 -0.87350570047E+01  0.10239666116E+03 -0.37636955445E+02  0.10944367434E+03  0.00000000000E+00 0. -1.
        5    1    4    4  501    0 -0.54459688327E+02  0.59233298833E+01 -0.14287265406E+03  0.15308699737E+03  0.46999998093E+01 0. -1.
        5    1    3    3  502    0  0.52694699478E+02  0.10940317935E+02  0.33221668851E+03  0.33658051048E+03  0.46999998093E+01 0. -1.
       -5    1    3    3    0  502  0.16090458115E+02 -0.10432620385E+03  0.29293019489E+03  0.31140495938E+03  0.46999998093E+01 0. -1.
</event>
<event>
10   0  0.1583500E-03  0.2779732E+03  0.7818609E-02  0.1100553E+00
       21   -1    0    0  501  503  0.00000000000E+00  0.00000000000E+00  0.49580497453E+02  0.49580497453E+02  0.00000000000E+00 0.  1.
        2   -1    0    0  503    0  0.00000000000E+00  0.00000000000E+00 -0.18323768648E+04  0.18323768648E+04  0.25500000920E-02 0. -1.
       25    2    1    2    0    0  0.19289959660E+03 -0.10360353098E+03 -0.13054321815E+04  0.13295574453E+04  0.12500349540E+03 0.  0.
        6    2    1    2  501    0 -0.19289959660E+03  0.10360353098E+03 -0.47736418583E+03  0.55239991694E+03  0.17124589430E+03 0.  0.
       24    2    4    4    0    0 -0.17463816908E+03  0.33946213754E+02 -0.41431222176E+03  0.45657058035E+03  0.71772154890E+02 0.  0.
      -11    1    5    5    0    0 -0.14786782003E+03  0.48086431255E+02 -0.38126120471E+03  0.41174907806E+03  0.51099999109E-03 0.  1.
       12    1    5    5    0    0 -0.26770349055E+02 -0.14140217501E+02 -0.33051017050E+02  0.44821502290E+02  0.00000000000E+00 0. -1.
        5    1    4    4  501    0 -0.18261427522E+02  0.69657317227E+02 -0.63051964073E+02  0.95829336584E+02  0.46999998093E+01 0. -1.
        5    1    3    3  502    0  0.16823006929E+03 -0.44441305181E+02 -0.72616618417E+03  0.74673676945E+03  0.46999998093E+01 0.  1.
       -5    1    3    3    0  502  0.24669527312E+02 -0.59162225800E+02 -0.57926599734E+03  0.58282067586E+03  0.46999998093E+01 0.  1.
</event>
<event>
10   0  0.1583500E-03  0.1807810E+03  0.7818609E-02  0.1179671E+00
        2   -1    0    0  503    0  0.00000000000E+00  0.00000000000E+00  0.11140189260E+04  0.11140189260E+04  0.00000000000E+00 0.  1.
       21   -1    0    0  501  503  0.00000000000E+00  0.00000000000E+00 -0.22535449300E+02  0.22535449300E+02  0.25500000920E-02 0.  1.
       25    2    1    2    0    0 -0.52761435173E+02  0.83424733617E+00  0.43873404977E+03  0.45923348505E+03  0.12499344924E+03 0.  0.
        6    2    1    2  501    0  0.52761435173E+02 -0.83424733617E+00  0.65274942692E+03  0.67732089024E+03  0.17290838327E+03 0.  0.
       24    2    4    4    0    0  0.98924832334E+02 -0.32082956069E+01  0.38453432856E+03  0.40511118371E+03  0.80324378090E+02 0.  0.
      -11    1    5    5    0    0  0.11993432553E+02  0.27006439101E+02  0.15540840678E+03  0.15819280349E+03  0.51099999109E-03 0.  1.
       12    1    5    5    0    0  0.86931399781E+02 -0.30214734708E+02  0.22912592178E+03  0.24691838022E+03  0.00000000000E+00 0. -1.
        5    1    4    4  501    0 -0.46163397161E+02  0.23740482707E+01  0.26821509836E+03  0.27220970653E+03  0.46999998093E+01 0. -1.
        5    1    3    3  502    0 -0.82972406563E+02 -0.28938881807E+02  0.23173721642E+03  0.24788325196E+03  0.46999998093E+01 0.  1.
       -5    1    3    3    0  502  0.30210971390E+02  0.29773129143E+02  0.20699683335E+03  0.21135023309E+03  0.46999998093E+01 0.  1.
</event>
<event>
10   0  0.1583500E-03  0.2022992E+03  0.7818609E-02  0.1156686E+00
       21   -1    0    0  501  503  0.00000000000E+00  0.00000000000E+00  0.18427160424E+03  0.18427160424E+03  0.00000000000E+00 0.  1.
        2   -1    0    0  503    0  0.00000000000E+00  0.00000000000E+00 -0.45681545145E+03  0.45681545146E+03  0.25500000920E-02 0. -1.
       25    2    1    2    0    0  0.98389905794E+02 -0.40150847723E+02 -0.37863381473E+03  0.41265756405E+03  0.12502013986E+03 0.  0.
        6    2    1    2  501    0 -0.98389905794E+02  0.40150847723E+02  0.10608996752E+03  0.22842949165E+03  0.17214031285E+03 0.  0.
       24    2    4    4    0    0 -0.13002841174E+03  0.30525664396E+02  0.11653650695E+03  0.19343150032E+03  0.77432446796E+02 0.  0.
      -15    1    5    5    0    0 -0.80170585811E+02  0.54885441213E+02  0.87690149369E+02  0.13089100241E+03  0.17769999504E+01 0.  1.
       16    1    5    5    0    0 -0.49857825932E+02 -0.24359776817E+02  0.28846357577E+02  0.62540497909E+02  0.00000000000E+00 0. -1.
        5    1    4    4  501    0  0.31638505950E+02  0.96251833264E+01 -0.10446539425E+02  0.34997991327E+02  0.46999998093E+01 0. -1.
        5    1    3    3  502    0  0.11648647649E+03 -0.48240701111E+02 -0.36928420658E+03  0.39024246268E+03  0.46999998093E+01 0.  1.
       -5    1    3    3    0  502 -0.18096570692E+02  0.80898533884E+01 -0.93496081517E+01  0.22415101371E+02  0.46999998093E+01 0.  1.
</event>
<event>
10   0  0.1583500E-03  0.3549161E+03  0.7818609E-02  0.1062718E+00
       -2   -1    0    0    0  501  0.00000000000E+00  0.00000000000E+00  0.76023367562E+02  0.76023367605E+02  0.00000000000E+00 0.  1.
       21   -1    0    0  501  503  0.00000000000E+00  0.00000000000E+00 -0.21139404001E+04  0.21139404001E+04  0.25500000920E-02 0. -1.
       25    2    1    2    0    0  0.30557891298E+03 -0.54922748520E+02 -0.43846806937E+03  0.55161020286E+03  0.12499835070E+03 0.  0.
       -6    2    1    2    0  503 -0.30557891298E+03  0.54922748520E+02 -0.15994489632E+04  0.16383535649E+04  0.17196056904E+03 0.  0.
      -24    2    4    4    0    0 -0.31438872619E+03  0.28015724108E+02 -0.14597614982E+04  0.14957482402E+04  0.82061039849E+02 0.  0.
       15    1    5    5    0    0 -0.12233387712E+03  0.44860234231E+02 -0.69106448329E+03  0.70324341156E+03  0.17769999504E+01 0. -1.
      -16    1    5    5    0    0 -0.19205484907E+03 -0.16844510123E+02 -0.76869701494E+03  0.79250482860E+03  0.00000000000E+00 0.  1.
       -5    1    4    4    0  503  0.88098132069E+01  0.26907024412E+02 -0.13968746494E+03  0.14260532469E+03  0.46999998093E+01 0.  1.
        5    1    3    3  502    0  0.23121535021E+03  0.43075962114E+01 -0.25076185260E+03  0.34114907339E+03  0.46999998093E+01 0.  1.
       -5    1    3    3    0  502  0.74363562771E+02 -0.59230344731E+02 -0.18770621677E+03  0.21046112947E+03  0.46999998093E+01 0.  1.
</event>
<event>
10   0  0.1583500E-03  0.3852789E+03  0.7818609E-02  0.1050717E+00
       21   -1    0    0  501  503  0.00000000000E+00  0.00000000000E+00  0.16420877062E+03  0.16420877062E+03  0.00000000000E+00 0. -1.
        2   -1    0    0  503    0  0.00000000000E+00  0.00000000000E+00 -0.11535544895E+04  0.11535544895E+04  0.25500000920E-02 0.  1.
       25    2    1    2    0    0  0.34450751508E+03  0.16504345751E+02 -0.81721504663E+03  0.89578131468E+03  0.12500363967E+03 0.  0.
        6    2    1    2  501    0 -0.34450751508E+03 -0.16504345751E+02 -0.17213067224E+03  0.42198194543E+03  0.17170315248E+03 0.  0.
       24    2    4    4    0    0 -0.10853072581E+03 -0.30757552820E+02 -0.18684864020E+02  0.14010270702E+03  0.80961094806E+02 0.  0.
      -15    1    5    5    0    0 -0.49867764917E+02  0.16716625906E+02 -0.34594728947E+02  0.62977714783E+02  0.17769999504E+01 0.  1.
       16    1    5    5    0    0 -0.58662960889E+02 -0.47474178726E+02  0.15909864927E+02  0.77124992239E+02  0.00000000000E+00 0. -1.
        5    1    4    4  501    0 -0.23597678927E+03  0.14253207068E+02 -0.15344580822E+03  0.28187923841E+03  0.46999998093E+01 0. -1.
        5    1    3    3  502    0  0.35376058806E+01 -0.22555631136E+02 -0.61654066395E+02  0.65913466398E+02  0.46999998093E+01 0.  1.
       -5    1    3    3    0  502  0.34096990919E+03  0.39059976887E+02 -0.75556098023E+03  0.82986784828E+03  0.46999998093E+01 0.  1.
</event>
<event>
10   0  0.1583500E-03  0.2689383E+03  0.7818609E-02  0.1106419E+00
       21   -1    0    0  501  503  0.00000000000E+00  0.00000000000E+00  0.44757013574E+02  0.44757013574E+02  0.00000000000E+00 0.  1.
        2   -1    0    0  503    0  0.00000000000E+00  0.00000000000E+00 -0.24853564122E+04  0.24853564122E+04  0.25500000920E-02 0. -1.
       25    2    1    2    0    0 -0.20408635482E+03 -0.96391949329E+00 -0.19974883586E+04  0.20117745398E+04  0.12499954804E+03 0.  0.
        6    2    1    2  501    0  0.20408635482E+03  0.96391949329E+00 -0.44311104005E+03  0.51833888597E+03  0.17514461889E+03 0.  0.
       24    2    4    4    0    0  0.21991321568E+03  0.30117872229E+02 -0.39376622224E+03  0.45869457754E+03  0.77974156177E+02 0.  0.
      -13    1    5    5    0    0  0.16121621686E+03 -0.27378053223E+01 -0.32329593601E+03  0.36127335573E+03  0.10565999895E+00 0.  1.
       14    1    5    5    0    0  0.58696998821E+02  0.32855677551E+02 -0.70470286228E+02  0.97421221810E+02  0.00000000000E+00 0. -1.
        5    1    4    4  501    0 -0.15826860857E+02 -0.29153952736E+02 -0.49344817816E+02  0.59644308430E+02  0.46999998093E+01 0. -1.
        5    1    3    3  502    0 -0.80757999908E+02 -0.60699785660E+02 -0.94348181212E+03  0.94888689438E+03  0.46999998093E+01 0. -1.
       -5    1    3    3    0  502 -0.12332835491E+03  0.59735866167E+02 -0.10540065465E+04  0.10628876454E+04  0.46999998093E+01 0. -1.
</event>
<event>
10   0  0.1583500E-03  0.2344835E+03  0.7818609E-02  0.1130384E+00
        2   -1    0    0  503    0  0.00000000000E+00  0.00000000000E+00  0.28224392798E+04  0.28224392798E+04  0.00000000000E+00 0. -1.
       21   -1    0    0  501  503  0.00000000000E+00  0.00000000000E+00 -0.32055804689E+02  0.32055804689E+02  0.25500000920E-02 0. -1.
       25    2    1    2    0    0  0.85194414105E+01 -0.15322874407E+03  0.23246745123E+04  0.23330860635E+04  0.12500945111E+03 0.  0.
        6    2    1    2  501    0 -0.85194414105E+01  0.15322874407E+03  0.46570896277E+03  0.52140902090E+03  0.17728761995E+03 0.  0.
       24    2    4    4    0    0 -0.31278924863E+02  0.14509481330E+03  0.46708374197E+03  0.49674862892E+03  0.81000631686E+02 0.  0.
      -15    1    5    5    0    0 -0.37533571928E+02  0.39253681154E+02  0.24082861535E+03  0.24688296864E+03  0.17769999504E+01 0.  1.
       16    1    5    5    0    0  0.62546470649E+01  0.10584113214E+03  0.22625512662E+03  0.24986566028E+03  0.00000000000E+00 0. -1.
        5    1    4    4  501    0  0.22759483453E+02  0.81339307713E+01 -0.13747792029E+01  0.24660391986E+02  0.46999998093E+01 0. -1.
        5    1    3    3  502    0  0.34895159998E+01 -0.17313240283E+03  0.21819763067E+04  0.21888420908E+04  0.46999998093E+01 0.  1.
       -5    1    3    3    0  502  0.50299254107E+01  0.19903658759E+02  0.14269820564E+03  0.14424397275E+03  0.46999998093E+01 0.  1.
</event>
<event>
10   0  0.1583500E-03  0.2395455E+03  0.7818609E-02  0.1125841E+00
       21   -1    0    0  501  503  0.00000000000E+00  0.00000000000E+00  0.44347753206E+03  0.44347753206E+03  0.00000000000E+00 0.  1.
       -2   -1    0    0    0  501  0.00000000000E+00  0.00000000000E+00 -0.13121514612E+03  0.13121514615E+03  0.25500000920E-02 0.  1.
       25    2    1    2    0    0  0.13174787270E+03 -0.10067375101E+03  0.38960112872E+02  0.21126979108E+03  0.12499731246E+03 0.  0.
       -6    2    1    2    0  503 -0.13174787270E+03  0.10067375101E+03  0.27330227306E+03  0.36342288713E+03  0.17288538494E+03 0.  0.
      -24    2    4    4    0    0 -0.13469003034E+03  0.41742896110E+02  0.13267400712E+03  0.21084536214E+03  0.83483536848E+02 0.  0.
       11    1    5    5    0    0 -0.43840136620E+02 -0.16915860593E+02  0.11390012650E+02  0.48351176892E+02  0.51099999109E-03 0. -1.
      -12    1    5    5    0    0 -0.90849893720E+02  0.58658756703E+02  0.12128399447E+03  0.16249418525E+03  0.00000000000E+00 0.  1.
       -5    1    4    4    0  503  0.29421576372E+01  0.58930854900E+02  0.14062826594E+03  0.15257752499E+03  0.46999998093E+01 0.  1.
        5    1    3    3  502    0 -0.11284141279E+02 -0.34742946952E+02 -0.21331877449E+02  0.42562227397E+02  0.46999998093E+01 0.  1.
       -5    1    3    3    0  502  0.14303201398E+03 -0.65930804059E+02  0.60291990321E+02  0.16870756368E+03  0.46999998093E+01 0.  1.
</event>
<event>
10   0  0.1583500E-03  0.1858738E+03  0.7818609E-02  0.1174047E+00
        2   -1    0    0  503    0  0.00000000000E+00  0.00000000000E+00  0.11492863563E+04  0.11492863563E+04  0.00000000000E+00 0.  1.
       21   -1    0    0  501  503  0.00000000000E+00  0.00000000000E+00 -0.23585104816E+02  0.23585104816E+02  0.25500000920E-02 0.  1.
       25    2    1    2    0    0  0.16177920259E+02 -0.64859498101E+02  0.54604715757E+03  0.56414495811E+03  0.12499422333E+03 0.  0.
        6    2    1    2  501    0 -0.16177920259E+02  0.64859498101E+02  0.57965409396E+03  0.60872650306E+03  0.17343761785E+03 0.  0.
       24    2    4    4    0    0 -0.97216312074E+01 -0.34835740360E+02  0.24052466746E+03  0.25515659179E+03  0.77102086593E+02 0.  0.
      -13    1    5    5    0    0  0.26748373011E+02 -0.23034842868E+02  0.52497431612E+02  0.63261923260E+02  0.10565999895E+00 0.  1.
       14    1    5    5    0    0 -0.36470004218E+02 -0.11800897492E+02  0.18802723585E+03  0.19189466853E+03  0.00000000000E+00 0. -1.
        5    1    4    4  501    0 -0.64562890520E+01  0.99695238462E+02  0.33912942649E+03  0.35356991126E+03  0.46999998093E+01 0. -1.
        5    1    3    3  502    0  0.61939911984E+02 -0.71542630996E+02  0.38820545484E+03  0.39960038278E+03  0.46999998093E+01 0.  1.
       -5    1    3    3    0  502 -0.45761991725E+02  0.66831328944E+01  0.15784170273E+03  0.16454457533E+03  0.46999998093E+01 0.  1.
</event>
<event>
10   0  0.1583500E-03  0.2297933E+03  0.7818609E-02  0.1133227E+00
       21   -1    0    0  501  503  0.00000000000E+00  0.00000000000E+00  0.23258039511E+02  0.23258039511E+02  0.00000000000E+00 0.  1.
        4   -1    0    0  503    0  0.00000000000E+00  0.00000000000E+00 -0.20614505402E+04  0.20614509314E+04  0.12699999809E+01 0.  1.
       25    2    1    2    0    0 -0.13704056581E+03 -0.63865334643E+02 -0.11842708862E+04  0.12004086336E+04  0.12499783244E+03 0.  0.
        6    2    1    2  501    0  0.13704056581E+03  0.63865334643E+02 -0.85392161446E+03  0.88430033727E+03  0.17304931438E+03 0.  0.
       24    2    4    4    0    0  0.91115727341E+02  0.11098485039E+03 -0.62289510988E+03  0.64404073732E+03  0.78552152281E+02 0.  0.
      -15    1    5    5    0    0  0.71735375426E+01  0.15882645846E+02 -0.15032222747E+02  0.23083403767E+02  0.17769999504E+01 0.  1.
       16    1    5    5    0    0  0.83942189799E+02  0.95102204544E+02 -0.60786288713E+03  0.62095733355E+03  0.00000000000E+00 0. -1.
        5    1    4    4  501    0  0.45924838469E+02 -0.47119515747E+02 -0.23102650458E+03  0.24025959995E+03  0.46999998093E+01 0. -1.
        5    1    3    3  502    0 -0.15740366121E+03 -0.59995453383E+02 -0.11226116276E+04  0.11351891135E+04  0.46999998093E+01 0.  1.
       -5    1    3    3    0  502  0.20363095395E+02 -0.38698812598E+01 -0.61659258606E+02  0.65219520123E+02  0.46999998093E+01 0.  1.
</event>
<event>
10   0  0.1583500E-03  0.3388221E+03  0.7818609E-02  0.1070068E+00
       21   -1    0    0  501  503  0.00000000000E+00  0.00000000000E+00  0.61730005563E+02  0.61730005563E+02  0.00000000000E+00 0.  1.
        2   -1    0    0  503    0  0.00000000000E+00  0.00000000000E+00 -0.17737100335E+04  0.17737100335E+04  0.25500000920E-02 0. -1.
       25    2    1    2    0    0  0.13714319187E+03  0.25324865700E+03 -0.67346279389E+03  0.74304888712E+03  0.12500550608E+03 0.  0.
        6    2    1    2  501    0 -0.13714319187E+03 -0.25324865700E+03 -0.10385172340E+04  0.10923911519E+04  0.17848598286E+03 0.  0.
       24    2    4    4    0    0 -0.14262441831E+03 -0.26949546559E+03 -0.10138487383E+04  0.10619834669E+04  0.83367193700E+02 0.  0.
      -11    1    5    5    0    0 -0.93644422535E+02 -0.24296688376E+03 -0.83826711202E+03  0.87777783953E+03  0.51099999109E-03 0.  1.
       12    1    5    5    0    0 -0.48979995779E+02 -0.26528581837E+02 -0.17558162631E+03  0.18420562733E+03  0.00000000000E+00 0. -1.
        5    1    4    4  501    0  0.54812264443E+01  0.16246808593E+02 -0.24668495682E+02  0.30407685052E+02  0.46999998093E+01 0. -1.
        5    1    3    3  502    0 -0.12693006453E+02  0.95012579102E+02 -0.20916181691E+03  0.23012878623E+03  0.46999998093E+01 0. -1.
       -5    1    3    3    0  502  0.14983619832E+03  0.15823607790E+03 -0.46430097699E+03  0.51292010090E+03  0.46999998093E+01 0. -1.
</event>
<event>
10   0  0.1583500E-03  0.1801413E+03  0.7818609E-02  0.1179611E+00
       21   -1    0    0  501  503  0.00000000000E+00  0.00000000000E+00  0.44063596560E+02  0.44063596560E+02  0.00000000000E+00 0. -1.
        2   -1    0    0  503    0  0.00000000000E+00  0.00000000000E+00 -0.12704963663E+04  0.12704963663E+04  0.25500000920E-02 0. -1.
       25    2    1    2    0    0  0.13822040289E+02  0.55131108548E+02 -0.10614200122E+04  0.10702648950E+04  0.12499606102E+03 0.  0.
        6    2    1    2  501    0 -0.13822040289E+02 -0.55131108548E+02 -0.16501275753E+03  0.24429506784E+03  0.17093970310E+03 0.  0.
       24    2    4    4    0    0 -0.51348329506E+02 -0.76858986609E+02 -0.72828717099E+02  0.14231315584E+03  0.80031603285E+02 0.  0.
      -15    1    5    5    0    0  0.82062111950E+01 -0.26041734235E+02 -0.55867489275E+02  0.62208101650E+02  0.17769999504E+01 0.  1.
       16    1    5    5    0    0 -0.59554540701E+02 -0.50817252375E+02 -0.16961227824E+02  0.80105054187E+02  0.00000000000E+00 0. -1.
        5    1    4    4  501    0  0.37526289217E+02  0.21727878062E+02 -0.92184040432E+02  0.10198191200E+03  0.46999998093E+01 0. -1.
        5    1    3    3  502    0 -0.29235765288E+02  0.32939324583E+02 -0.12561354911E+03  0.13319377911E+03  0.46999998093E+01 0. -1.
       -5    1    3    3    0  502  0.43057805578E+02  0.22191783965E+02 -0.93580646307E+03  0.93707111588E+03  0.46999998093E+01 0. -1.
</event>
<event>
10   0  0.1583500E-03  0.2071245E+03  0.7818609E-02  0.1151699E+00
       21   -1    0    0  501  503  0.00000000000E+00  0.00000000000E+00  0.75454177605E+02  0.75454177605E+02  0.00000000000E+00 0. -1.
        2   -1    0    0  503    0  0.00000000000E+00  0.00000000000E+00 -0.51270896335E+03  0.51270896336E+03  0.25500000920E-02 0.  1.
       25    2    1    2    0    0 -0.10037451241E+03 -0.62056179498E+02 -0.12138253855E+03  0.21043860837E+03  0.12499870029E+03 0.  0.
        6    2    1    2  501    0  0.10037451241E+03  0.62056179498E+02 -0.31587224720E+03  0.37772453259E+03  0.17021907594E+03 0.  0.
       24    2    4    4    0    0  0.97629525226E+02  0.47513816627E+02 -0.11661625833E+03  0.17786444561E+03  0.79040004657E+02 0.  0.
      -15    1    5    5    0    0  0.76604700652E+02  0.40030475389E+02 -0.12669254725E+03  0.15337822003E+03  0.17769999504E+01 0.  1.
       16    1    5    5    0    0  0.21024824574E+02  0.74833412388E+01  0.10076288919E+02  0.24486225573E+02  0.00000000000E+00 0. -1.
        5    1    4    4  501    0  0.27449871858E+01  0.14542362871E+02 -0.19925598886E+03  0.19986008698E+03  0.46999998093E+01 0. -1.
        5    1    3    3  502    0 -0.33641507982E+01 -0.39659247107E+02  0.13884491588E+02  0.42415121084E+02  0.46999998093E+01 0.  1.
       -5    1    3    3    0  502 -0.97010361613E+02 -0.22396932392E+02 -0.13526703013E+03  0.16802348729E+03  0.46999998093E+01 0.  1.
</event>
<event>
10   0  0.1583500E-03  0.3409372E+03  0.7818609E-02  0.1068720E+00
        2   -1    0    0  503    0  0.00000000000E+00  0.00000000000E+00  0.56033619548E+03  0.56033619549E+03  0.00000000000E+00 0.  1.
       21   -1    0    0  501  503  0.00000000000E+00  0.00000000000E+00 -0.19752339720E+03  0.19752339720E+03  0.25500000920E-02 0.  1.
       25    2    1    2    0    0 -0.49116132038E+02 -0.29021596025E+03  0.22037024915E+03  0.38836252911E+03  0.12499883717E+03 0.  0.
        6    2    1    2  501    0  0.49116132038E+02  0.29021596025E+03  0.14244254914E+03  0.36949706358E+03  0.17204796476E+03 0.  0.
       24    2    4    4    0    0  0.83098996860E+02  0.16690138172E+03  0.40973590423E+02  0.20615888690E+03  0.77853304596E+02 0.  0.
      -13    1    5    5    0    0 -0.15200815069E+02  0.20631920281E+02  0.81882223257E+01  0.26903513936E+02  0.10565999895E+00 0.  1.
       14    1    5    5    0    0  0.98299811929E+02  0.14626946144E+03  0.32785368098E+02  0.17925537297E+03  0.00000000000E+00 0. -1.
        5    1    4    4  501    0 -0.33982864822E+02  0.12331457853E+03  0.10146895871E+03  0.16333817667E+03  0.46999998093E+01 0. -1.
        5    1    3    3  502    0 -0.55216042320E+01 -0.26636229247E+03  0.16319690963E+03  0.31246548653E+03  0.46999998093E+01 0.  1.
       -5    1    3    3    0  502 -0.43594527806E+02 -0.23853667778E+02  0.57173339525E+02  0.75897042576E+02  0.46999998093E+01 0.  1.
</event>
<event>
10   0  0.1583500E-03  0.1799100E+03  0.7818609E-02  0.1180295E+00
       21   -1    0    0  501  503  0.00000000000E+00  0.00000000000E+00  0.93541625752E+01  0.93541625752E+01  0.00000000000E+00 0.  1.
        2   -1    0    0  503    0  0.00000000000E+00  0.00000000000E+00 -0.30707233306E+04  0.30707233306E+04  0.25500000920E-02 0.  1.
       25    2    1    2    0    0  0.59064007598E+01  0.52574723972E+02 -0.19014538256E+04  0.19062924997E+04  0.12500182593E+03 0.  0.
        6    2    1    2  501    0 -0.59064007598E+01 -0.52574723972E+02 -0.11599153424E+04  0.11737849934E+04  0.17195529089E+03 0.  0.
       24    2    4    4    0    0  0.50028861232E+02 -0.73757748369E+02 -0.79912369963E+03  0.80803894279E+03  0.79907154607E+02 0.  0.
      -11    1    5    5    0    0  0.18640639280E+02  0.71646381160E+01 -0.49042447577E+02  0.52952498872E+02  0.51099999109E-03 0.  1.
       12    1    5    5    0    0  0.31388221952E+02 -0.80922386485E+02 -0.75008125205E+03  0.75508644392E+03  0.00000000000E+00 0. -1.
        5    1    4    4  501    0 -0.55935261992E+02  0.21183024397E+02 -0.36079164277E+03  0.36574605063E+03  0.46999998093E+01 0. -1.
        5    1    3    3  502    0  0.61293025667E+02  0.63667375180E+01 -0.10259727625E+04  0.10278324619E+04  0.46999998093E+01 0.  1.
       -5    1    3    3    0  502 -0.55386624907E+02  0.46207986454E+02 -0.87548106311E+03  0.87846003785E+03  0.46999998093E+01 0.  1.
</event>
<event>
10   0  0.1583500E-03  0.1735333E+03  0.7818609E-02  0.1187550E+00
        2   -1    0    0  503    0  0.00000000000E+00  0.00000000000E+00  0.14727359964E+03  0.14727359966E+03  0.00000000000E+00 0.  1.
       21   -1    0    0  501  503  0.00000000000E+00  0.00000000000E+00 -0.15502860038E+03  0.15502860038E+03  0.25500000920E-02 0.  1.
       25    2    1    2    0    0 -0.30273687035E+02  0.26991771246E+01 -0.54673340589E+01  0.12875380080E+03  0.12499547110E+03 0.  0.
        6    2    1    2  501    0  0.30273687035E+02 -0.26991771246E+01 -0.22876666801E+01  0.17354839923E+03  0.17085090510E+03 0.  0.
       24    2    4    4    0    0 -0.56134701557E+00 -0.54063921477E+02 -0.42152761702E+02  0.10143423913E+03  0.74758456601E+02 0.  0.
      -13    1    5    5    0    0  0.28541417816E+02 -0.45162634358E+01 -0.31938897267E+02  0.43071028419E+02  0.10565999895E+00 0.  1.
       14    1    5    5    0    0 -0.29102764831E+02 -0.49547658041E+02 -0.10213864435E+02  0.58363210714E+02  0.00000000000E+00 0. -1.
        5    1    4    4  501    0  0.30835034050E+02  0.51364744353E+02  0.39865095022E+02  0.72114160098E+02  0.46999998093E+01 0. -1.
        5    1    3    3  502    0  0.10702882326E+02 -0.39843142328E+02  0.37190000685E+02  0.55742388089E+02  0.46999998093E+01 0. -1.
       -5    1    3    3    0  502 -0.40976569361E+02  0.42542319452E+02 -0.42657334744E+02  0.73011412715E+02  0.46999998093E+01 0. -1.
</event>
<event>
10   0  0.1583500E-03  0.1790526E+03  0.7818609E-02  0.1181153E+00
        2   -1    0    0  503    0  0.00000000000E+00  0.00000000000E+00  0.16911108560E+02  0.16911108752E+02  0.00000000000E+00 0.  1.
       21   -1    0    0  501  503  0.00000000000E+00  0.00000000000E+00 -0.14587152272E+04  0.14587152272E+04  0.25500000920E-02 0.  1.
       25    2    1    2    0    0  0.34162260476E+02  0.38116346753E+02 -0.61893889481E+03  0.63350579734E+03  0.12499729527E+03 0.  0.
        6    2    1    2  501    0 -0.34162260476E+02 -0.38116346753E+02 -0.82286522388E+03  0.84212053866E+03  0.17158061963E+03 0.  0.
       24    2    4    4    0    0 -0.16657185734E+02 -0.24303632876E+02 -0.81319167451E+03  0.81736399888E+03  0.77039462366E+02 0.  0.
      -13    1    5    5    0    0 -0.21082017344E+02 -0.11477357925E+02 -0.69134686832E+02  0.73183312904E+02  0.10565999895E+00 0.  1.
       14    1    5    5    0    0  0.44248316100E+01 -0.12826274952E+02 -0.74405698768E+03  0.74418068597E+03  0.00000000000E+00 0. -1.
        5    1    4    4  501    0 -0.17505074742E+02 -0.13812713877E+02 -0.96735493676E+01  0.24756539781E+02  0.46999998093E+01 0. -1.
        5    1    3    3  502    0 -0.70026320052E+01  0.58356936156E+02 -0.53050589700E+03  0.53377257854E+03  0.46999998093E+01 0.  1.
       -5    1    3    3    0  502  0.41164892481E+02 -0.20240589403E+02 -0.88432997814E+02  0.99733218804E+02  0.46999998093E+01 0.  1.
</event>
<event>
10   0  0.1583500E-03  0.2029289E+03  0.7818609E-02  0.1156109E+00
       21   -1    0    0  501  503  0.00000000000E+00  0.00000000000E+00  0.10941794139E+03  0.10941794139E+03  0.00000000000E+00 0. -1.
        2   -1    0    0  503    0  0.00000000000E+00  0.00000000000E+00 -0.46924256414E+03  0.46924256415E+03  0.25500000920E-02 0.  1.
       25    2    1    2    0    0  0.77346542790E+02 -0.74442241918E+02 -0.33614306211E+03  0.37435449979E+03  0.12499999296E+03 0.  0.
        6    2    1    2  501    0 -0.77346542790E+02  0.74442241918E+02 -0.23681560633E+02  0.20430600575E+03  0.17220915367E+03 0.  0.
       24    2    4    4    0    0 -0.17487395479E+02  0.76287683922E+02 -0.66545716177E+02  0.13050933237E+03  0.80490581908E+02 0.  0.
      -15    1    5    5    0    0 -0.17109869681E+02  0.86674406410E+02 -0.31270436308E+02  0.93734722930E+02  0.17769999504E+01 0.  1.
       16    1    5    5    0    0 -0.37752579809E+00 -0.10386722488E+02 -0.35275279869E+02  0.36774609442E+02  0.00000000000E+00 0. -1.
        5    1    4    4  501    0 -0.59859147311E+02 -0.18454420036E+01  0.42864155544E+02  0.73796673378E+02  0.46999998093E+01 0. -1.
        5    1    3    3  502    0 -0.31637476552E+00 -0.61383789588E+02 -0.25031989942E+03  0.25777938583E+03  0.46999998093E+01 0. -1.
       -5    1    3    3    0  502  0.77662917555E+02 -0.13058452330E+02 -0.85823162694E+02  0.11657511395E+03  0.46999998093E+01 0. -1.
</event>
<event>
10   0  0.1583500E-03  0.2539380E+03  0.7818609E-02  0.1115679E+00
        2   -1    0    0  503    0  0.00000000000E+00  0.00000000000E+00  0.65424847232E+03  0.65424847233E+03  0.00000000000E+00 0.  1.
       21   -1    0    0  501  503  0.00000000000E+00  0.00000000000E+00 -0.12481252394E+03  0.12481252394E+03  0.25500000920E-02 0.  1.
       25    2    1    2    0    0 -0.80314938391E+02  0.16850425192E+03  0.46598699911E+03  0.51731634285E+03  0.12501257136E+03 0.  0.
        6    2    1    2  501    0  0.80314938391E+02 -0.16850425192E+03  0.63448949271E+02  0.26174465342E+03  0.17216364943E+03 0.  0.
       24    2    4    4    0    0 -0.15614903951E+02 -0.47910011650E+02  0.51868526389E+02  0.10714290171E+03  0.79057339419E+02 0.  0.
      -13    1    5    5    0    0 -0.53103459325E+01 -0.66382334127E+02  0.54199531950E+02  0.85862765421E+02  0.10565999895E+00 0.  1.
       14    1    5    5    0    0 -0.10304558019E+02  0.18472322477E+02 -0.23310055617E+01  0.21280136292E+02  0.00000000000E+00 0. -1.
        5    1    4    4  501    0  0.95929842342E+02 -0.12059424027E+03  0.11580422882E+02  0.15460175171E+03  0.46999998093E+01 0. -1.
        5    1    3    3  502    0 -0.21854899581E+02  0.73484967162E+02  0.63598670899E+02  0.99722404568E+02  0.46999998093E+01 0. -1.
       -5    1    3    3    0  502 -0.58460038810E+02  0.95019284758E+02  0.40238832821E+03  0.41759393828E+03  0.46999998093E+01 0. -1.
</event>
<event>
10   0  0.1583500E-03  0.1779808E+03  0.7818609E-02  0.1181994E+00
       -2   -1    0    0    0  501  0.00000000000E+00  0.00000000000E+00  0.55731542789E+02  0.55731542847E+02  0.00000000000E+00 0.  1.
       21   -1    0    0  501  503  0.00000000000E+00  0.00000000000E+00 -0.51924603952E+03  0.51924603952E+03  0.25500000920E-02 0.  1.
       25    2    1    2    0    0 -0.47614282872E+02 -0.18123522830E+02 -0.92892320481E+02  0.16383532623E+03  0.12496979196E+03 0.  0.
       -6    2    1    2    0  503  0.47614282872E+02  0.18123522830E+02 -0.37062217625E+03  0.41114225614E+03  0.17053320862E+03 0.  0.
      -24    2    4    4    0    0  0.82776979220E+02 -0.29569832897E+02 -0.24370140146E+03  0.27099217778E+03  0.79498327243E+02 0.  0.
       15    1    5    5    0    0  0.10478775071E+02  0.16104072770E+02 -0.91839824652E+01  0.21369350704E+02  0.17769999504E+01 0. -1.
      -16    1    5    5    0    0  0.72298204149E+02 -0.45673905667E+02 -0.23451741900E+03  0.24962282707E+03  0.00000000000E+00 0.  1.
       -5    1    4    4    0  503 -0.35162696348E+02  0.47693355727E+02 -0.12692077478E+03  0.14015007836E+03  0.46999998093E+01 0.  1.
        5    1    3    3  502    0 -0.49632983631E+02  0.70132981420E+01 -0.11778316428E+03  0.12809208876E+03  0.46999998093E+01 0.  1.
       -5    1    3    3    0  502  0.20187007589E+01 -0.25136820972E+02  0.24890843804E+02  0.35743237470E+02  0.46999998093E+01 0.  1.
</event>
<event>
10   0  0.1583500E-03  0.2361601E+03  0.7818609E-02  0.1128149E+00
        2   -1    0    0  503    0  0.00000000000E+00  0.00000000000E+00  0.15121570926E+04  0.15121570926E+04  0.00000000000E+00 0.  1.
       21   -1    0    0  501  503  0.00000000000E+00  0.00000000000E+00 -0.36557124736E+02  0.36557124736E+02  0.25500000920E-02 0. -1.
       25    2    1    2    0    0 -0.16202947985E+03 -0.34841328181E+01  0.96030884628E+03  0.98188396911E+03  0.12504941840E+03 0.  0.
        6    2    1    2  501    0  0.16202947985E+03  0.34841328181E+01  0.51529112158E+03  0.56683024822E+03  0.17177281157E+03 0.  0.
       24    2    4    4    0    0  0.13102637769E+03 -0.59035488962E+02  0.39259534964E+03  0.42559909761E+03  0.79689288637E+02 0.  0.
      -11    1    5    5    0    0  0.87503995527E+02 -0.81197370393E+01  0.29042428966E+03  0.30342898245E+03  0.51099999109E-03 0.  1.
       12    1    5    5    0    0  0.43522382160E+02 -0.50915751922E+02  0.10217105998E+03  0.12217011516E+03  0.00000000000E+00 0. -1.
        5    1    4    4  501    0  0.31003102159E+02  0.62519621780E+02  0.12269577194E+03  0.14123115061E+03  0.46999998093E+01 0. -1.
        5    1    3    3  502    0 -0.57942069463E+02  0.36793267110E+02  0.16499989436E+03  0.17876823838E+03  0.46999998093E+01 0. -1.
       -5    1    3    3    0  502 -0.10408741038E+03 -0.40277399928E+02  0.79530895192E+03  0.80311573073E+03  0.46999998093E+01 0. -1.
</event>
<event>
10   0  0.1583500E-03  0.1751729E+03  0.7818609E-02  0.1185588E+00
       21   -1    0    0  501  503  0.00000000000E+00  0.00000000000E+00  0.18887107911E+03  0.18887107911E+03  0.00000000000E+00 0. -1.
        4   -1    0    0  503    0  0.00000000000E+00  0.00000000000E+00 -0.16438283845E+03  0.16438774431E+03  0.12699999809E+01 0. -1.
       25    2    1    2    0    0 -0.26330514877E+02 -0.27337901429E+02 -0.76175366177E+02  0.15122244579E+03  0.12499953931E+03 0.  0.
        6    2    1    2  501    0  0.26330514877E+02  0.27337901429E+02  0.10066360683E+03  0.20203637763E+03  0.17101134254E+03 0.  0.
       24    2    4    4    0    0 -0.25999762244E+02  0.31777115036E+02 -0.67494584552E+00  0.87800845600E+02  0.77606444704E+02 0.  0.
      -15    1    5    5    0    0  0.22463178939E+02  0.59597675603E+00  0.16193944138E+02  0.27755200448E+02  0.17769999504E+01 0.  1.
       16    1    5    5    0    0 -0.48462941183E+02  0.31181138280E+02 -0.16868889984E+02  0.60045645152E+02  0.00000000000E+00 0. -1.
        5    1    4    4  501    0  0.52330277121E+02 -0.44392136065E+01  0.10133855268E+03  0.11423553203E+03  0.46999998093E+01 0. -1.
        5    1    3    3  502    0 -0.22129298445E+02 -0.75649397803E+02 -0.62259994101E+02  0.10055314068E+03  0.46999998093E+01 0. -1.
       -5    1    3    3    0  502 -0.42012164327E+01  0.48311496373E+02 -0.13915372075E+02  0.50669305102E+02  0.46999998093E+01 0. -1.
</event>
<event>
10   0  0.1583500E-03  0.1956430E+03  0.7818609E-02  0.1162715E+00
        2   -1    0    0  503    0  0.00000000000E+00  0.00000000000E+00  0.25253263967E+03  0.25253263968E+03  0.00000000000E+00 0. -1.
       21   -1    0    0  501  503  0.00000000000E+00  0.00000000000E+00 -0.13308644851E+03  0.13308644851E+03  0.25500000920E-02 0.  1.
       25    2    1    2    0    0  0.96016950072E+02 -0.24786832432E+01  0.10507355189E+03  0.18944885249E+03  0.12500007133E+03 0.  0.
        6    2    1    2  501    0 -0.96016950072E+02  0.24786832432E+01  0.14372639267E+02  0.19617023569E+03  0.17044292312E+03 0.  0.
       24    2    4    4    0    0 -0.22453796821E+02  0.47680303318E+02  0.44960717078E+02  0.10445085674E+03  0.78172444488E+02 0.  0.
      -11    1    5    5    0    0 -0.37900626305E+02 -0.56751979883E+01  0.23170413138E+02  0.44783182019E+02  0.51099999109E-03 0.  1.
       12    1    5    5    0    0  0.15446829484E+02  0.53355501306E+02  0.21790303940E+02  0.59667674720E+02  0.00000000000E+00 0. -1.
        5    1    4    4  501    0 -0.73563153251E+02 -0.45201620075E+02 -0.30588077811E+02  0.91719378956E+02  0.46999998093E+01 0. -1.
        5    1    3    3  502    0  0.11369929638E+03  0.14423032462E+02  0.11519241527E+03  0.16256363799E+03  0.46999998093E+01 0.  1.
       -5    1    3    3    0  502 -0.17682346305E+02 -0.16901715705E+02 -0.10118863379E+02  0.26885214504E+02  0.46999998093E+01 0.  1.
</event>
<event>
10   0  0.1583500E-03  0.2935482E+03  0.7818609E-02  0.1091864E+00
        2   -1    0    0  503    0  0.00000000000E+00  0.00000000000E+00  0.15674048762E+04  0.15674048762E+04  0.00000000000E+00 0. -1.
       21   -1    0    0  501  503  0.00000000000E+00  0.00000000000E+00 -0.11259860091E+03  0.11259860091E+03  0.25500000920E-02 0.  1.
       25    2    1    2    0    0 -0.17604224046E+03  0.15987388511E+03  0.13369570503E+04  0.13636824735E+04  0.12500081785E+03 0.  0.
        6    2    1    2  501    0  0.17604224046E+03 -0.15987388511E+03  0.11784922492E+03  0.31632100359E+03  0.17210464239E+03 0.  0.
       24    2    4    4    0    0  0.11603107405E+03 -0.19324687309E+02  0.53258087453E+02  0.15034051638E+03  0.77001255200E+02 0.  0.
      -15    1    5    5    0    0  0.41987746730E+02 -0.45554956571E+02  0.25672173559E+02  0.67085342421E+02  0.17769999504E+01 0.  1.
       16    1    5    5    0    0  0.74043327319E+02  0.26230269261E+02  0.27585913894E+02  0.83255173962E+02  0.00000000000E+00 0. -1.
        5    1    4    4  501    0  0.60011166415E+02 -0.14054919780E+03  0.64591137466E+02  0.16598048721E+03  0.46999998093E+01 0. -1.
        5    1    3    3  502    0 -0.18100565861E+03  0.10446114519E+03  0.11379952050E+04  0.11570351576E+04  0.46999998093E+01 0.  1.
       -5    1    3    3    0  502  0.49634181486E+01  0.55412739919E+02  0.19896184531E+03  0.20664731586E+03  0.46999998093E+01 0.  1.
</event>
<event>
10   0  0.1583500E-03  0.1856343E+03  0.7818609E-02  0.1173741E+00
       -4   -1    0    0    0  501  0.00000000000E+00  0.00000000000E+00  0.18757099338E+03  0.18757529277E+03  0.00000000000E+00 0. -1.
       21   -1    0    0  501  503  0.00000000000E+00  0.00000000000E+00 -0.19438029641E+03  0.19438029641E+03  0.12699999809E+01 0. -1.
       25    2    1    2    0    0 -0.67710301903E+02 -0.17932305048E+02  0.93361095676E+02  0.17101912713E+03  0.12499998044E+03 0.  0.
       -6    2    1    2    0  503  0.67710301903E+02  0.17932305048E+02 -0.10017039871E+03  0.21093646204E+03  0.17191227325E+03 0.  0.
      -24    2    4    4    0    0  0.59057112762E+02  0.64305277445E+02 -0.11063976707E+03  0.16238723009E+03  0.80656947397E+02 0.  0.
       11    1    5    5    0    0  0.38583155169E+02  0.41660707448E+02 -0.11802910640E+03  0.13097764834E+03  0.51099999109E-03 0. -1.
      -12    1    5    5    0    0  0.20473957593E+02  0.22644569997E+02  0.73893393260E+01  0.31409581747E+02  0.00000000000E+00 0.  1.
       -5    1    4    4    0  503  0.86531891410E+01 -0.46372972397E+02  0.10469368365E+02  0.48549231954E+02  0.46999998093E+01 0.  1.
        5    1    3    3  502    0 -0.10298219098E+03 -0.26941288155E+02  0.67921411466E+02  0.12635890471E+03  0.46999998093E+01 0. -1.
       -5    1    3    3    0  502  0.35271889077E+02  0.90089831068E+01  0.25439684210E+02  0.44660222420E+02  0.46999998093E+01 0. -1.
</event>
<event>
10   0  0.1583500E-03  0.1977792E+03  0.7818609E-02  0.1160707E+00
       21   -1    0    0  501  503  0.00000000000E+00  0.00000000000E+00  0.54048928095E+02  0.54048928095E+02  0.00000000000E+00 0.  1.
       -4   -1    0    0    0  501  0.00000000000E+00  0.00000000000E+00 -0.86867295004E+03  0.86867387841E+03  0.12699999809E+01 0.  1.
       25    2    1    2    0    0  0.48661265551E+02  0.86960154938E+02 -0.63744986781E+03  0.65719067914E+03  0.12500906953E+03 0.  0.
       -6    2    1    2    0  503 -0.48661265551E+02 -0.86960154938E+02 -0.17717415414E+03  0.26553212737E+03  0.17084098588E+03 0.  0.
      -24    2    4    4    0    0 -0.49513715821E+02 -0.66775037679E+02 -0.32801628490E+02  0.11967712474E+03  0.79599960075E+02 0.  0.
       11    1    5    5    0    0 -0.11223560859E+02 -0.12800565308E+02  0.26048320702E+02  0.31118126586E+02  0.51099999109E-03 0. -1.
      -12    1    5    5    0    0 -0.38290154962E+02 -0.53974472371E+02 -0.58849949193E+02  0.88558998158E+02  0.00000000000E+00 0.  1.
       -5    1    4    4    0  503  0.85245027055E+00 -0.20185117258E+02 -0.14437252565E+03  0.14585500262E+03  0.46999998093E+01 0.  1.
        5    1    3    3  502    0 -0.98339498421E+01 -0.84948268470E+01 -0.47001721280E+01  0.14596241602E+02  0.46999998093E+01 0. -1.
       -5    1    3    3    0  502  0.58495215393E+02  0.95454981785E+02 -0.63274969568E+03  0.64259443754E+03  0.46999998093E+01 0. -1.
</event>
<event>
10   0  0.1583500E-03  0.2099706E+03  0.7818609E-02  0.1149395E+00
        2   -1    0    0  503    0  0.00000000000E+00  0.00000000000E+00  0.92303528615E+03  0.92303528615E+03  0.00000000000E+00 0.  1.
       21   -1    0    0  501  503  0.00000000000E+00  0.00000000000E+00 -0.44536001072E+02  0.44536001072E+02  0.25500000920E-02 0.  1.
       25    2    1    2    0    0  0.42939104300E+02 -0.11356109255E+03  0.24854388702E+03  0.30354458711E+03  0.12500145667E+03 0.  0.
        6    2    1    2  501    0 -0.42939104300E+02  0.11356109255E+03  0.62995539806E+03  0.66402670012E+03  0.17131189833E+03 0.  0.
       24    2    4    4    0    0 -0.20993193349E+02  0.14753348324E+03  0.48058095423E+03  0.50920241002E+03  0.78244475589E+02 0.  0.
      -13    1    5    5    0    0 -0.34383778137E+02  0.70196927284E+02  0.33297412723E+03  0.34202577881E+03  0.10565999895E+00 0.  1.
       14    1    5    5    0    0  0.13390584788E+02  0.77336555953E+02  0.14760682700E+03  0.16717663122E+03  0.00000000000E+00 0. -1.
        5    1    4    4  501    0 -0.21945910952E+02 -0.33972390691E+02  0.14937444383E+03  0.15482429010E+03  0.46999998093E+01 0. -1.
        5    1    3    3  502    0 -0.38860020207E+02 -0.98991245542E+01  0.77722609286E+02  0.87584175681E+02  0.46999998093E+01 0.  1.
       -5    1    3    3    0  502  0.81799124507E+02 -0.10366196799E+03  0.17082127773E+03  0.21596041142E+03  0.46999998093E+01 0.  1.
</event>
<event>
10   0  0.1583500E-03  0.3005353E+03  0.7818609E-02  0.1088125E+00
       -4   -1    0    0    0  501  0.00000000000E+00  0.00000000000E+00  0.15929960268E+04  0.15929965331E+04  0.00000000000E+00 0.  1.
       21   -1    0    0  501  503  0.00000000000E+00  0.00000000000E+00 -0.73680226886E+02  0.73680226886E+02  0.12699999809E+01 0. -1.
       25    2    1    2    0    0 -0.23246845542E+03 -0.81905268746E+02  0.11864492833E+04  0.12182109563E+04  0.12500390554E+03 0.  0.
       -6    2    1    2    0  503  0.23246845542E+03  0.81905268746E+02  0.33286651664E+03  0.44846580366E+03  0.17196337789E+03 0.  0.
      -24    2    4    4    0    0  0.24160404634E+03  0.89613939472E+02  0.33682713532E+03  0.43502485413E+03  0.96906817437E+02 0.  0.
       11    1    5    5    0    0  0.11391138433E+03  0.27364304866E+01  0.96331825656E+02  0.14920828451E+03  0.51099999109E-03 0. -1.
      -12    1    5    5    0    0  0.12769266201E+03  0.86877508986E+02  0.24049530966E+03  0.28581656962E+03  0.00000000000E+00 0.  1.
       -5    1    4    4    0  503 -0.91355909204E+01 -0.77086707259E+01 -0.39606186754E+01  0.13440949532E+02  0.46999998093E+01 0.  1.
        5    1    3    3  502    0 -0.21282129453E+03 -0.11161554422E+03  0.10224324073E+04  0.10503052179E+04  0.46999998093E+01 0. -1.
       -5    1    3    3    0  502 -0.19647160889E+02  0.29710275470E+02  0.16401687596E+03  0.16790573843E+03  0.46999998093E+01 0. -1.
</event>
<event>
10   0  0.1583500E-03  0.1803449E+03  0.7818609E-02  0.1180147E+00
        2   -1    0    0  503    0  0.00000000000E+00  0.00000000000E+00  0.51251464167E+03  0.51251464168E+03  0.00000000000E+00 0. -1.
       21   -1    0    0  501  503  0.00000000000E+00  0.00000000000E+00 -0.83206711374E+02  0.83206711374E+02  0.25500000920E-02 0. -1.
       25    2    1    2    0    0  0.47683727440E+02  0.19537768128E+02  0.38775479402E+03  0.41065123190E+03  0.12500076691E+03 0.  0.
        6    2    1    2  501    0 -0.47683727440E+02 -0.19537768128E+02  0.41553136280E+02  0.18507012115E+03  0.17282599447E+03 0.  0.
       24    2    4    4    0    0 -0.71508949420E+02 -0.56440376817E+02  0.65270105266E+02  0.13493003393E+03  0.75145734632E+02 0.  0.
      -15    1    5    5    0    0 -0.78583187523E+02 -0.51266309956E+02  0.29903017675E+02  0.98493147440E+02  0.17769999504E+01 0.  1.
       16    1    5    5    0    0  0.70742381028E+01 -0.51740668605E+01  0.35367087591E+02  0.36436886493E+02  0.00000000000E+00 0. -1.
        5    1    4    4  501    0  0.23825221981E+02  0.36902608689E+02 -0.23716968987E+02  0.50140087221E+02  0.46999998093E+01 0. -1.
        5    1    3    3  502    0  0.56298140233E+02  0.41967364687E+02  0.37767337600E+03  0.38417445156E+03  0.46999998093E+01 0.  1.
       -5    1    3    3    0  502 -0.86144127930E+01 -0.22429596559E+02  0.10081418015E+02  0.26476780336E+02  0.46999998093E+01 0.  1.
</event>
<event>
10   0  0.1583500E-03  0.1763432E+03  0.7818609E-02  0.1185781E+00
       21   -1    0    0  501  503  0.00000000000E+00  0.00000000000E+00  0.10215262236E+03  0.10215262236E+03  0.00000000000E+00 0. -1.
        2   -1    0    0  503    0  0.00000000000E+00  0.00000000000E+00 -0.26301034802E+03  0.26301034804E+03  0.25500000920E-02 0. -1.
       25    2    1    2    0    0 -0.20192391646E+02  0.14622486563E+02 -0.13710489842E+03  0.18722722609E+03  0.12503891883E+03 0.  0.
        6    2    1    2  501    0  0.20192391646E+02 -0.14622486563E+02 -0.23752827237E+02  0.17793574431E+03  0.17457199806E+03 0.  0.
       24    2    4    4    0    0  0.46438041692E+02 -0.33297979880E+02  0.41361153706E+02  0.10513788233E+03  0.77961414071E+02 0.  0.
      -11    1    5    5    0    0 -0.16358910157E+02  0.54741110250E+01 -0.50269146810E+01  0.17968018937E+02  0.51099999109E-03 0.  1.
       12    1    5    5    0    0  0.62796951850E+02 -0.38772090905E+02  0.46388068387E+02  0.87169863390E+02  0.00000000000E+00 0. -1.
        5    1    4    4  501    0 -0.26245650046E+02  0.18675493317E+02 -0.65113980943E+02  0.72797861984E+02  0.46999998093E+01 0. -1.
        5    1    3    3  502    0 -0.40915978218E+02 -0.46872247096E+02 -0.64723770746E+02  0.89902065155E+02  0.46999998093E+01 0.  1.
       -5    1    3    3    0  502  0.20723586572E+02  0.61494733659E+02 -0.72381127677E+02  0.97325160931E+02  0.46999998093E+01 0.  1.
</event>
<event>
10   0  0.1583500E-03  0.3668470E+03  0.7818609E-02  0.1057868E+00
        2   -1    0    0  503    0  0.00000000000E+00  0.00000000000E+00  0.22959391552E+04  0.22959391552E+04  0.00000000000E+00 0.  1.
       21   -1    0    0  501  503  0.00000000000E+00  0.00000000000E+00 -0.47007096911E+03  0.47007096911E+03  0.25500000920E-02 0. -1.
       25    2    1    2    0    0 -0.12055930642E+03 -0.30056426106E+03  0.22086852908E+04  0.22357973091E+04  0.12500189027E+03 0.  0.
        6    2    1    2  501    0  0.12055930642E+03  0.30056426106E+03 -0.38281710469E+03  0.53021281515E+03  0.17234637308E+03 0.  0.
       24    2    4    4    0    0  0.10910809215E+03  0.20773117764E+03 -0.17887486168E+03  0.30579436633E+03  0.80356458377E+02 0.  0.
      -11    1    5    5    0    0  0.11198431941E+03  0.13686915382E+03 -0.12131261983E+03  0.21445373579E+03  0.51099999109E-03 0.  1.
       12    1    5    5    0    0 -0.28762272513E+01  0.70862023816E+02 -0.57562241844E+02  0.91340630547E+02  0.00000000000E+00 0. -1.
        5    1    4    4  501    0  0.11451214264E+02  0.92833083415E+02 -0.20394224301E+03  0.22441844881E+03  0.46999998093E+01 0. -1.
        5    1    3    3  502    0 -0.23094791412E+02 -0.11064396445E+03  0.11659501564E+04  0.11714253341E+04  0.46999998093E+01 0.  1.
       -5    1    3    3    0  502 -0.97464515006E+02 -0.18992029660E+03  0.10427351344E+04  0.10643719750E+04  0.46999998093E+01 0.  1.
</event>
<event>
10   0  0.1583500E-03  0.1988621E+03  0.7818609E-02  0.1159845E+00
       21   -1    0    0  501  503  0.00000000000E+00  0.00000000000E+00  0.89872656022E+02  0.89872656022E+02  0.00000000000E+00 0. -1.
       -2   -1    0    0    0  501  0.00000000000E+00  0.00000000000E+00 -0.45007348016E+03  0.45007348017E+03  0.25500000920E-02 0. -1.
       25    2    1    2    0    0 -0.48271947857E+02 -0.88253980887E+02 -0.28553393997E+03  0.32752839464E+03  0.12500508920E+03 0.  0.
       -6    2    1    2    0  503  0.48271947857E+02  0.88253980887E+02 -0.74666884168E+02  0.21241774155E+03  0.17154360158E+03 0.  0.
      -24    2    4    4    0    0  0.35970584266E+02  0.67509536793E+02  0.23227255131E+02  0.11148703258E+03  0.77707352043E+02 0.  0.
       13    1    5    5    0    0 -0.11379827600E+02  0.58192687777E+02  0.36448674204E+01  0.59406949168E+02  0.10565999895E+00 0. -1.
      -14    1    5    5    0    0  0.47350411866E+02  0.93168490156E+01  0.19582387711E+02  0.52080083409E+02  0.00000000000E+00 0.  1.
       -5    1    4    4    0  503  0.12301363592E+02  0.20744444094E+02 -0.97894139300E+02  0.10093070898E+03  0.46999998093E+01 0.  1.
        5    1    3    3  502    0 -0.51481129052E+02 -0.10462228261E+03 -0.28731284820E+03  0.31010787060E+03  0.46999998093E+01 0. -1.
       -5    1    3    3    0  502  0.32091811949E+01  0.16368301724E+02  0.17789082262E+01  0.17420524043E+02  0.46999998093E+01 0. -1.
</event>
<event>
10   0  0.1583500E-03  0.2230038E+03  0.7818609E-02  0.1138774E+00
       21   -1    0    0  501  503  0.00000000000E+00  0.00000000000E+00  0.35650889006E+03  0.35650889006E+03  0.00000000000E+00 0.  1.
       -2   -1    0    0    0  501  0.00000000000E+00  0.00000000000E+00 -0.24646389665E+03  0.24646389667E+03  0.25500000920E-02 0. -1.
       25    2    1    2    0    0 -0.13757395037E+03  0.25190800314E+02 -0.16434582090E+03  0.24938966599E+03  0.12499795364E+03 0.  0.
       -6    2    1    2    0  503  0.13757395037E+03 -0.25190800314E+02  0.27439081431E+03  0.35358312073E+03  0.17369379969E+03 0.  0.
      -24    2    4    4    0    0  0.76509663236E+02 -0.59185521425E+02  0.83299624326E+02  0.15005813182E+03  0.78879407940E+02 0.  0.
       13    1    5    5    0    0  0.23449977343E+02 -0.60545041277E+02  0.69721613219E+02  0.95271811017E+02  0.10565999895E+00 0. -1.
      -14    1    5    5    0    0  0.53059685893E+02  0.13595198521E+01  0.13578011107E+02  0.54786320801E+02  0.00000000000E+00 0.  1.
       -5    1    4    4    0  503  0.61064287131E+02  0.33994721111E+02  0.19109118998E+03  0.20352498891E+03  0.46999998093E+01 0.  1.
        5    1    3    3  502    0 -0.52555475493E+02 -0.42661878570E+02 -0.10601807719E+03  0.12587309712E+03  0.46999998093E+01 0. -1.
       -5    1    3    3    0  502 -0.85018474874E+02  0.67852678885E+02 -0.58327743711E+02  0.12351656887E+03  0.46999998093E+01 0. -1.
</event>
<event>
10   0  0.1583500E-03  0.2092114E+03  0.7818609E-02  0.1149904E+00
        2   -1    0    0  503    0  0.00000000000E+00  0.00000000000E+00  0.10785646752E+04  0.10785646752E+04  0.00000000000E+00 0.  1.
       21   -1    0    0  501  503  0.00000000000E+00  0.00000000000E+00 -0.43149588410E+02  0.43149588410E+02  0.25500000920E-02 0.  1.
       25    2    1    2    0    0  0.11976645972E+03  0.17991191931E+02  0.73697595299E+03  0.75724844571E+03  0.12499586150E+03 0.  0.
        6    2    1    2  501    0 -0.11976645972E+03 -0.17991191931E+02  0.29843913380E+03  0.36446581789E+03  0.17059228579E+03 0.  0.
       24    2    4    4    0    0 -0.53775210134E+01 -0.43051802018E+02  0.14704613469E+03  0.17301140125E+03  0.80174832994E+02 0.  0.
      -11    1    5    5    0    0  0.25950818886E+01 -0.18884225839E+02 -0.42999287217E+01  0.19540670992E+02  0.51099999109E-03 0.  1.
       12    1    5    5    0    0 -0.79726029020E+01 -0.24167576180E+02  0.15134606341E+03  0.15347073026E+03  0.00000000000E+00 0. -1.
        5    1    4    4  501    0 -0.11438893871E+03  0.25060610088E+02  0.15139299910E+03  0.19145441664E+03  0.46999998093E+01 0. -1.
        5    1    3    3  502    0  0.48970526681E+02  0.49848405609E+02  0.15487363611E+03  0.16997326021E+03  0.46999998093E+01 0.  1.
       -5    1    3    3    0  502  0.70795933038E+02 -0.31857213679E+02  0.58210231688E+03  0.58727518550E+03  0.46999998093E+01 0.  1.
</event>
<event>
10   0  0.1583500E-03  0.1858465E+03  0.7818609E-02  0.1173334E+00
        2   -1    0    0  503    0  0.00000000000E+00  0.00000000000E+00  0.14982114653E+04  0.14982114653E+04  0.00000000000E+00 0.  1.
       21   -1    0    0  501  503  0.00000000000E+00  0.00000000000E+00 -0.25401979086E+02  0.25401979086E+02  0.25500000920E-02 0.  1.
       25    2    1    2    0    0  0.39536567095E+02  0.59870880107E+02  0.10739981891E+04  0.10836255318E+04  0.12499808270E+03 0.  0.
        6    2    1    2  501    0 -0.39536567095E+02 -0.59870880107E+02  0.39881129713E+03  0.43998791255E+03  0.17143876472E+03 0.  0.
       24    2    4    4    0    0 -0.27870033606E+02  0.33352743770E+02  0.16224971285E+03  0.18540938791E+03  0.78501767588E+02 0.  0.
      -13    1    5    5    0    0  0.15954571378E+02  0.42094360364E+02  0.79166291373E+02  0.91070282618E+02  0.10565999895E+00 0.  1.
       14    1    5    5    0    0 -0.43824604984E+02 -0.87416165945E+01  0.83083421479E+02  0.94339105292E+02  0.00000000000E+00 0. -1.
        5    1    4    4  501    0 -0.11666533488E+02 -0.93223623877E+02  0.23656158428E+03  0.25457852464E+03  0.46999998093E+01 0. -1.
        5    1    3    3  502    0  0.31741112369E+02  0.26540986061E+02  0.10103213314E+04  0.10111791161E+04  0.46999998093E+01 0.  1.
       -5    1    3    3    0  502  0.77954547255E+01  0.33329894046E+02  0.63676857711E+02  0.72446415768E+02  0.46999998093E+01 0.  1.
</event>
<event>
10   0  0.1583500E-03  0.1774811E+03  0.7818609E-02  0.1183086E+00
        2   -1    0    0  503    0  0.00000000000E+00  0.00000000000E+00  0.42261159675E+03  0.42261159676E+03  0.00000000000E+00 0.  1.
       21   -1    0    0  501  503  0.00000000000E+00  0.00000000000E+00 -0.81657086647E+02  0.81657086647E+02  0.25500000920E-02 0.  1.
       25    2    1    2    0    0 -0.40295934601E+02  0.19804460583E+02  0.29102526752E+03  0.31989816950E+03  0.12499261383E+03 0.  0.
        6    2    1    2  501    0  0.40295934601E+02 -0.19804460583E+02  0.49929242590E+02  0.18437051391E+03  0.17170782780E+03 0.  0.
       24    2    4    4    0    0  0.56225478424E+02  0.47427779380E+02  0.52066279581E+02  0.11508428597E+03  0.71573715334E+02 0.  0.
      -11    1    5    5    0    0 -0.13769714974E+02 -0.22824705929E+01 -0.12680191554E+01  0.14015084563E+02  0.51099999109E-03 0.  1.
       12    1    5    5    0    0  0.69995193397E+02  0.49710249973E+02  0.53334298736E+02  0.10106920141E+03  0.00000000000E+00 0. -1.
        5    1    4    4  501    0 -0.15929543823E+02 -0.67232239963E+02 -0.21370369908E+01  0.69286227940E+02  0.46999998093E+01 0. -1.
        5    1    3    3  502    0  0.30519491143E+01 -0.28278108964E+02  0.22666476623E+03  0.22849063895E+03  0.46999998093E+01 0.  1.
       -5    1    3    3    0  502 -0.43347883715E+02  0.48082569547E+02  0.64360501286E+02  0.91407530548E+02  0.46999998093E+01 0.  1.
</event>
<event>
10   0  0.1583500E-03  0.2287631E+03  0.7818609E-02  0.1133811E+00
       21   -1    0    0  501  503  0.00000000000E+00  0.00000000000E+00  0.90651154976E+02  0.90651154976E+02  0.00000000000E+00 0.  1.
        2   -1    0    0  503    0  0.00000000000E+00  0.00000000000E+00 -0.16436245252E+04  0.16436245252E+04  0.25500000920E-02 0.  1.
       25    2    1    2    0    0 -0.58865518062E+02  0.13904588614E+03 -0.14817823840E+04  0.14946912193E+04  0.12499559915E+03 0.  0.
        6    2    1    2  501    0  0.58865518062E+02 -0.13904588614E+03 -0.71190986276E+02  0.23958446095E+03  0.17185357061E+03 0.  0.
       24    2    4    4    0    0  0.88402719301E+02 -0.14446335263E+03 -0.31051575088E+02  0.18923510614E+03  0.78492191004E+02 0.  0.
      -13    1    5    5    0    0  0.49217449147E+02 -0.96261789593E+02 -0.56638867415E+02  0.12205188201E+03  0.10565999895E+00 0.  1.
       14    1    5    5    0    0  0.39185270154E+02 -0.48201563038E+02  0.25587292327E+02  0.67183224133E+02  0.00000000000E+00 0. -1.
        5    1    4    4  501    0 -0.29537201239E+02  0.54174664951E+01 -0.40139411188E+02  0.50349354802E+02  0.46999998093E+01 0. -1.
        5    1    3    3  502    0 -0.60492716353E+02  0.84241401589E+01 -0.34254828697E+03  0.34798240440E+03  0.46999998093E+01 0. -1.
       -5    1    3    3    0  502  0.16271982915E+01  0.13062174598E+03 -0.11392340970E+04  0.11467088149E+04  0.46999998093E+01 0. -1.
</event>
<event>
10   0  0.1583500E-03  0.1848667E+03  0.7818609E-02  0.1174546E+00
       -2   -1    0    0    0  501  0.00000000000E+00  0.00000000000E+00  0.43701805138E+03  0.43701805139E+03  0.00000000000E+00 0.  1.
       21   -1    0    0  501  503  0.00000000000E+00  0.00000000000E+00 -0.98396174285E+02  0.98396174285E+02  0.25500000920E-02 0.  1.
       25    2    1    2    0    0 -0.67703772908E+02 -0.91618780367E+01  0.31918220614E+03  0.34952827861E+03  0.12499998382E+03 0.  0.
       -6    2    1    2    0  503  0.67703772908E+02  0.91618780367E+01  0.19439670959E+02  0.18588594707E+03  0.17177876363E+03 0.  0.
      -24    2    4    4    0    0  0.93696348043E+02 -0.39888821655E+02  0.84203763664E+01  0.12909598357E+03  0.78897062729E+02 0.  0.
       15    1    5    5    0    0  0.74509723037E+02  0.91595457865E+01  0.13081621855E+02  0.76222586319E+02  0.17769999504E+01 0. -1.
      -16    1    5    5    0    0  0.19186625006E+02 -0.49048367441E+02 -0.46612454883E+01  0.52873397255E+02  0.00000000000E+00 0.  1.
       -5    1    4    4    0  503 -0.25992575135E+02  0.49050699691E+02  0.11019294593E+02  0.56789963496E+02  0.46999998093E+01 0.  1.
        5    1    3    3  502    0 -0.95029822634E+02 -0.27870286497E+02  0.28478513422E+03  0.30154946979E+03  0.46999998093E+01 0.  1.
       -5    1    3    3    0  502  0.27326049726E+02  0.18708408460E+02  0.34397071923E+02  0.47978808821E+02  0.46999998093E+01 0.  1.
</event>
<event>
10   0  0.1583500E-03  0.1826474E+03  0.7818609E-02  0.1176994E+00
       21   -1    0    0  501  503  0.00000000000E+00  0.00000000000E+00  0.27042358248E+03  0.27042358248E+03  0.00000000000E+00 0.  1.
        2   -1    0    0  503    0  0.00000000000E+00  0.00000000000E+00 -0.97462965271E+02  0.97462965304E+02  0.25500000920E-02 0.  1.
       25    2    1    2    0    0  0.27483213974E+02 -0.56085260616E+02  0.53455838029E+02  0.14961725988E+03  0.12500765707E+03 0.  0.
        6    2    1    2  501    0 -0.27483213974E+02  0.56085260616E+02  0.11950477918E+03  0.21826928790E+03  0.17163684420E+03 0.  0.
       24    2    4    4    0    0  0.13856936499E+02  0.38813468865E+02  0.14192109875E+03  0.16795125721E+03  0.79796782354E+02 0.  0.
      -11    1    5    5    0    0  0.46362358060E+02  0.26822710155E+02  0.70202532783E+02  0.88302444102E+02  0.51099999109E-03 0.  1.
       12    1    5    5    0    0 -0.32505421562E+02  0.11990758710E+02  0.71718565968E+02  0.79648813110E+02  0.00000000000E+00 0. -1.
        5    1    4    4  501    0 -0.41340150472E+02  0.17271791751E+02 -0.22416319568E+02  0.50318030690E+02  0.46999998093E+01 0. -1.
        5    1    3    3  502    0  0.61342279181E+02 -0.24941267222E+02 -0.13987141930E+02  0.67842996421E+02  0.46999998093E+01 0.  1.
       -5    1    3    3    0  502 -0.33859065207E+02 -0.31143993394E+02  0.67442979959E+02  0.81774263464E+02  0.46999998093E+01 0.  1.
</event>
<event>
10   0  0.1583500E-03  0.3375877E+03  0.7818609E-02  0.1070219E+00
       21   -1    0    0  501  503  0.00000000000E+00  0.00000000000E+00  0.18237683272E+03  0.18237683272E+03  0.00000000000E+00 0.  1.
        2   -1    0    0  503    0  0.00000000000E+00  0.00000000000E+00 -0.17544193277E+04  0.17544193277E+04  0.25500000920E-02 0. -1.
       25    2    1    2    0    0 -0.93318399296E+02  0.27493302869E+03 -0.15676270323E+04  0.15991795756E+04  0.12499723500E+03 0.  0.
        6    2    1    2  501    0  0.93318399296E+02 -0.27493302869E+03 -0.44154626791E+01  0.33761658480E+03  0.17224682322E+03 0.  0.
       24    2    4    4    0    0  0.56371013213E+02 -0.10110918519E+03  0.53432428361E+02  0.15067192346E+03  0.80288515110E+02 0.  0.
      -15    1    5    5    0    0  0.49900019649E+02 -0.31589134198E+02 -0.54516563598E+01  0.59336023176E+02  0.17769999504E+01 0.  1.
       16    1    5    5    0    0  0.64709935635E+01 -0.69520050990E+02  0.58884084721E+02  0.91335900285E+02  0.00000000000E+00 0. -1.
        5    1    4    4  501    0  0.36947386083E+02 -0.17382384350E+03 -0.57847891041E+02  0.18694466134E+03  0.46999998093E+01 0. -1.
        5    1    3    3  502    0 -0.12100222377E+03  0.23624821784E+03 -0.12413765141E+04  0.12694457446E+04  0.46999998093E+01 0.  1.
       -5    1    3    3    0  502  0.27683824478E+02  0.38684810851E+02 -0.32625051814E+03  0.32973383101E+03  0.46999998093E+01 0.  1.
</event>
<event>
10   0  0.1583500E-03  0.1834535E+03  0.7818609E-02  0.1176361E+00
       21   -1    0    0  501  503  0.00000000000E+00  0.00000000000E+00  0.14865643326E+02  0.14865643326E+02  0.00000000000E+00 0. -1.
       -2   -1    0    0    0  501  0.00000000000E+00  0.00000000000E+00 -0.25483251741E+04  0.25483251741E+04  0.25500000920E-02 0. -1.
       25    2    1    2    0    0 -0.17897393249E+02 -0.60216979576E+02 -0.18580764718E+04  0.18633355100E+04  0.12499858644E+03 0.  0.
       -6    2    1    2    0  503  0.17897393249E+02  0.60216979576E+02 -0.67538305896E+03  0.69985530737E+03  0.17236233235E+03 0.  0.
      -24    2    4    4    0    0 -0.77765667171E+01 -0.44264142415E+01 -0.51764246538E+03  0.52739631095E+03  0.10056380417E+03 0.  0.
       13    1    5    5    0    0 -0.50934987693E+01 -0.19571426788E+02 -0.16727029909E+02  0.26244793194E+02  0.10565999895E+00 0. -1.
      -14    1    5    5    0    0 -0.26830679478E+01  0.15145012546E+02 -0.50091543547E+03  0.50115151776E+03  0.00000000000E+00 0.  1.
       -5    1    4    4    0  503  0.25673959966E+02  0.64643393818E+02 -0.15774059358E+03  0.17245899642E+03  0.46999998093E+01 0.  1.
        5    1    3    3  502    0 -0.55252433806E+02 -0.17153576279E+02 -0.14618010118E+04  0.14629529605E+04  0.46999998093E+01 0.  1.
       -5    1    3    3    0  502  0.37355040558E+02 -0.43063403297E+02 -0.39627545999E+03  0.40038254950E+03  0.46999998093E+01 0.  1.
</event>
<event>
10   0  0.1583500E-03  0.1913862E+03  0.7818609E-02  0.1167870E+00
        2   -1    0    0  503    0  0.00000000000E+00  0.00000000000E+00  0.96660430242E+03  0.96660430242E+03  0.00000000000E+00 0. -1.
       21   -1    0    0  501  503  0.00000000000E+00  0.00000000000E+00 -0.35718696335E+02  0.35718696335E+02  0.25500000920E-02 0. -1.
       25    2    1    2    0    0  0.76750755793E+02  0.28969636942E+02  0.61558687902E+03  0.63348432226E+03  0.12500105021E+03 0.  0.
        6    2    1    2  501    0 -0.76750755793E+02 -0.28969636942E+02  0.31529872706E+03  0.36883867649E+03  0.17291258951E+03 0.  0.
       24    2    4    4    0    0 -0.44782332381E+02 -0.81612856691E+02  0.25415638178E+03  0.28192627769E+03  0.78872327095E+02 0.  0.
      -11    1    5    5    0    0  0.72126392767E+01  0.84658900161E+01  0.66056542708E+02  0.66986269443E+02  0.51099999109E-03 0.  1.
       12    1    5    5    0    0 -0.51994971657E+02 -0.90078746707E+02  0.18809983907E+03  0.21494000825E+03  0.00000000000E+00 0. -1.
        5    1    4    4  501    0 -0.31968423412E+02  0.52643219749E+02  0.61142345282E+02  0.86912398803E+02  0.46999998093E+01 0. -1.
        5    1    3    3  502    0 -0.15204657143E+02  0.50617361090E+02  0.17540118430E+03  0.18325109630E+03  0.46999998093E+01 0.  1.
       -5    1    3    3    0  502  0.91955412936E+02 -0.21647724148E+02  0.44018569472E+03  0.45023322596E+03  0.46999998093E+01 0.  1.
</event>
<event>
10   0  0.1583500E-03  0.3106678E+03  0.7818609E-02  0.1082825E+00
        4   -1    0    0  503    0  0.00000000000E+00  0.00000000000E+00  0.13463825962E+03  0.13464424924E+03  0.00000000000E+00 0.  1.
       21   -1    0    0  501  503  0.00000000000E+00  0.00000000000E+00 -0.66624841844E+03  0.66624841844E+03  0.12699999809E+01 0.  1.
       25    2    1    2    0    0 -0.24778673284E+03 -0.77550181858E+02 -0.24593440911E+03  0.37884397155E+03  0.12500690188E+03 0.  0.
        6    2    1    2  501    0  0.24778673284E+03  0.77550181858E+02 -0.28567574970E+03  0.42204869613E+03  0.17059358799E+03 0.  0.
       24    2    4    4    0    0  0.69445325470E+02  0.79645676505E+02 -0.11717418560E+03  0.17664104388E+03  0.79411470187E+02 0.  0.
      -11    1    5    5    0    0  0.77529071149E+02  0.36794039208E+02 -0.59896336648E+02  0.10465242156E+03  0.51099999109E-03 0.  1.
       12    1    5    5    0    0 -0.80837456789E+01  0.42851637297E+02 -0.57277848949E+02  0.71988622320E+02  0.00000000000E+00 0. -1.
        5    1    4    4  501    0  0.17834140737E+03 -0.20954946472E+01 -0.16850156411E+03  0.24540765225E+03  0.46999998093E+01 0. -1.
        5    1    3    3  502    0 -0.14439306196E+03 -0.87951822748E+02 -0.90534790825E+02  0.19184242965E+03  0.46999998093E+01 0.  1.
       -5    1    3    3    0  502 -0.10339367088E+03  0.10401640890E+02 -0.15539961828E+03  0.18700154190E+03  0.46999998093E+01 0.  1.
</event>
<event>
10   0  0.1583500E-03  0.1851760E+03  0.7818609E-02  0.1174121E+00
       21   -1    0    0  501  503  0.00000000000E+00  0.00000000000E+00  0.11784768159E+03  0.11784768159E+03  0.00000000000E+00 0.  1.
        2   -1    0    0  503    0  0.00000000000E+00  0.00000000000E+00 -0.38640728586E+03  0.38640728586E+03  0.25500000920E-02 0.  1.
       25    2    1    2    0    0 -0.25251503602E+00  0.69683891766E+02 -0.28442563370E+03  0.31840052405E+03  0.12500017629E+03 0.  0.
        6    2    1    2  501    0  0.25251503602E+00 -0.69683891766E+02  0.15866029434E+02  0.18585444340E+03  0.17156408338E+03 0.  0.
       24    2    4    4    0    0 -0.14401298236E+01 -0.10129505073E+03 -0.11028281233E+02  0.14405104208E+03  0.10181511903E+03 0.  0.
      -15    1    5    5    0    0 -0.17972483106E+02 -0.21483872681E+02  0.39274744072E+02  0.48272457832E+02  0.17769999504E+01 0.  1.
       16    1    5    5    0    0  0.16532353282E+02 -0.79811178046E+02 -0.50303025305E+02  0.95778584250E+02  0.00000000000E+00 0. -1.
        5    1    4    4  501    0  0.16926448596E+01  0.31611158961E+02  0.26894310667E+02  0.41803401320E+02  0.46999998093E+01 0. -1.
        5    1    3    3  502    0  0.26885066946E+02  0.47845787132E+02 -0.32337039682E+02  0.63873314495E+02  0.46999998093E+01 0.  1.
       -5    1    3    3    0  502 -0.27137581982E+02  0.21838104634E+02 -0.25208859402E+03  0.25452720955E+03  0.46999998093E+01 0.  1.
</event>
<event>
10   0  0.1583500E-03  0.1802508E+03  0.7818609E-02  0.1180580E+00
       21   -1    0    0  501  503  0.00000000000E+00  0.00000000000E+00  0.43016496792E+02  0.43016496792E+02  0.00000000000E+00 0. -1.
        2   -1    0    0  503    0  0.00000000000E+00  0.00000000000E+00 -0.94177127834E+03  0.94177127834E+03  0.25500000920E-02 0. -1.
       25    2    1    2    0    0  0.39556131351E+02  0.28188514200E+02 -0.71468968140E+03  0.72716340367E+03  0.12500398025E+03 0.  0.
        6    2    1    2  501    0 -0.39556131351E+02 -0.28188514200E+02 -0.18406510015E+03  0.25762437146E+03  0.17358305165E+03 0.  0.
       24    2    4    4    0    0  0.42999908037E+02 -0.11011749422E+02 -0.81327213618E+02  0.12462924293E+03  0.83355154618E+02 0.  0.
      -11    1    5    5    0    0  0.53975986975E+01 -0.35556985521E+02 -0.53301266377E+01  0.36357166299E+02  0.51099999109E-03 0.  1.
       12    1    5    5    0    0  0.37602309340E+02  0.24545236099E+02 -0.75997086980E+02  0.88272076628E+02  0.00000000000E+00 0. -1.
        5    1    4    4  501    0 -0.82556039389E+02 -0.17176764778E+02 -0.10273788653E+03  0.13299512854E+03  0.46999998093E+01 0. -1.
        5    1    3    3  502    0 -0.24514813841E+02  0.26654708998E+02 -0.67102037845E+02  0.76395177142E+02  0.46999998093E+01 0. -1.
       -5    1    3    3    0  502  0.64070945192E+02  0.15338052022E+01 -0.64758764356E+03  0.65076822653E+03  0.46999998093E+01 0. -1.
</event>
<event>
10   0  0.1583500E-03  0.1849176E+03  0.7818609E-02  0.1174536E+00
        2   -1    0    0  503    0  0.00000000000E+00  0.00000000000E+00  0.57470776164E+03  0.57470776164E+03  0.00000000000E+00 0. -1.
       21   -1    0    0  501  503  0.00000000000E+00  0.00000000000E+00 -0.51629097775E+02  0.51629097775E+02  0.25500000920E-02 0. -1.
       25    2    1    2    0    0  0.35475412277E+02 -0.58180329547E+02  0.32789100273E+03  0.35746376146E+03  0.12499750183E+03 0.  0.
        6    2    1    2  501    0 -0.35475412277E+02  0.58180329547E+02  0.19518766113E+03  0.26887309796E+03  0.17190422951E+03 0.  0.
       24    2    4    4    0    0  0.45984070744E+02  0.40670744217E+02  0.10236177167E+03  0.14404934739E+03  0.80645136169E+02 0.  0.
      -13    1    5    5    0    0  0.40942103167E+00  0.32673540972E+02  0.90591893758E+02  0.96304881932E+02  0.10565999895E+00 0.  1.
       14    1    5    5    0    0  0.45574649712E+02  0.79972032452E+01  0.11769877912E+02  0.47744465461E+02  0.00000000000E+00 0. -1.
        5    1    4    4  501    0 -0.81459483020E+02  0.17509585330E+02  0.92825889460E+02  0.12482375056E+03  0.46999998093E+01 0. -1.
        5    1    3    3  502    0  0.44754778130E+01 -0.55238605531E+02  0.41622746745E+02  0.69468528755E+02  0.46999998093E+01 0.  1.
       -5    1    3    3    0  502  0.30999934464E+02 -0.29417240166E+01  0.28626825599E+03  0.28799523271E+03  0.46999998093E+01 0.  1.
</event>
<event>
10   0  0.1583500E-03  0.2802614E+03  0.7818609E-02  0.1099312E+00
       21   -1    0    0  501  503  0.00000000000E+00  0.00000000000E+00  0.40439762816E+02  0.40439762816E+02  0.00000000000E+00 0.  1.
        2   -1    0    0  503    0  0.00000000000E+00  0.00000000000E+00 -0.22570219917E+04  0.22570219917E+04  0.25500000920E-02 0. -1.
       25    2    1    2    0    0 -0.21985852903E+03  0.24090695863E+02 -0.16016570037E+04  0.16216811142E+04  0.12500537737E+03 0.  0.
        6    2    1    2  501    0  0.21985852903E+03 -0.24090695863E+02 -0.61492522521E+03  0.67578064030E+03  0.17212875063E+03 0.  0.
       24    2    4    4    0    0  0.22913327182E+03 -0.17508578973E+02 -0.61709416757E+03  0.66328506405E+03  0.79581768939E+02 0.  0.
      -11    1    5    5    0    0  0.10919037950E+03  0.65627780868E+01 -0.19239254738E+03  0.22131538880E+03  0.51099999109E-03 0.  1.
       12    1    5    5    0    0  0.11994289233E+03 -0.24071357060E+02 -0.42470162019E+03  0.44196967525E+03  0.00000000000E+00 0. -1.
        5    1    4    4  501    0 -0.92747427971E+01 -0.65821168899E+01  0.21689423606E+01  0.12495576252E+02  0.46999998093E+01 0. -1.
        5    1    3    3  502    0 -0.14513364536E+03 -0.20665610083E+02 -0.12810532651E+04  0.12894225066E+04  0.46999998093E+01 0.  1.
       -5    1    3    3    0  502 -0.74724883664E+02  0.44756305946E+02 -0.32060373854E+03  0.33225860760E+03  0.46999998093E+01 0.  1.
</event>
<event>
10   0  0.1583500E-03  0.4100770E+03  0.7818609E-02  0.1041721E+00
       21   -1    0    0  501  503  0.00000000000E+00  0.00000000000E+00  0.12936313400E+03  0.12936313400E+03  0.00000000000E+00 0.  1.
        2   -1    0    0  503    0  0.00000000000E+00  0.00000000000E+00 -0.18769275113E+04  0.18769275113E+04  0.25500000920E-02 0. -1.
       25    2    1    2    0    0  0.24526871952E+03 -0.28190781335E+03 -0.14420662914E+04  0.14949275069E+04  0.12499720857E+03 0.  0.
        6    2    1    2  501    0 -0.24526871952E+03  0.28190781335E+03 -0.30549808587E+03  0.51136313834E+03  0.16892133904E+03 0.  0.
       24    2    4    4    0    0 -0.21593940900E+03  0.15393948056E+03 -0.22866322107E+03  0.35917316135E+03  0.79945601034E+02 0.  0.
      -13    1    5    5    0    0 -0.13833145408E+03  0.12226879805E+03 -0.11344654076E+03  0.21669189865E+03  0.10565999895E+00 0.  1.
       14    1    5    5    0    0 -0.77607954917E+02  0.31670682510E+02 -0.11521668031E+03  0.14248126270E+03  0.00000000000E+00 0. -1.
        5    1    4    4  501    0 -0.29329310522E+02  0.12796833279E+03 -0.76834864795E+02  0.15218997700E+03  0.46999998093E+01 0. -1.
        5    1    3    3  502    0  0.25613730046E+03 -0.24412124224E+03 -0.13192134969E+04  0.13658505914E+04  0.46999998093E+01 0.  1.
       -5    1    3    3    0  502 -0.10868580942E+02 -0.37786571108E+02 -0.12285279450E+03  0.12907691552E+03  0.46999998093E+01 0.  1.
</event>
<event>
10   0  0.1583500E-03  0.1921319E+03  0.7818609E-02  0.1166692E+00
       21   -1    0    0  501  503  0.00000000000E+00  0.00000000000E+00  0.68644221892E+02  0.68644221892E+02  0.00000000000E+00 0.  1.
        2   -1    0    0  503    0  0.00000000000E+00  0.00000000000E+00 -0.80630612148E+03  0.80630612149E+03  0.25500000920E-02 0.  1.
       25    2    1    2    0    0 -0.34353695447E+02  0.79042187725E+02 -0.64315115276E+03  0.66083134929E+03  0.12500729208E+03 0.  0.
        6    2    1    2  501    0  0.34353695447E+02 -0.79042187725E+02 -0.94510746831E+02  0.21411899409E+03  0.17171726335E+03 0.  0.
       24    2    4    4    0    0  0.37686291536E+02 -0.63422572429E+02  0.11284119604E+02  0.10702220450E+03  0.76705551543E+02 0.  0.
      -11    1    5    5    0    0  0.38525434610E+02 -0.30471277344E+02 -0.27363722509E+02  0.56227050116E+02  0.51099999109E-03 0.  1.
       12    1    5    5    0    0 -0.83914307388E+00 -0.32951295085E+02  0.38647842114E+02  0.50795154384E+02  0.00000000000E+00 0. -1.
        5    1    4    4  501    0 -0.33325960896E+01 -0.15619615295E+02 -0.10579486644E+03  0.10709678959E+03  0.46999998093E+01 0. -1.
        5    1    3    3  502    0 -0.58787797748E+02  0.78713712813E+01 -0.44251259256E+03  0.44649462283E+03  0.46999998093E+01 0. -1.
       -5    1    3    3    0  502  0.24434102301E+02  0.71170816443E+02 -0.20063856020E+03  0.21433672645E+03  0.46999998093E+01 0. -1.
</event>
<event>
10   0  0.1583500E-03  0.1808780E+03  0.7818609E-02  0.1179017E+00
        2   -1    0    0  503    0  0.00000000000E+00  0.00000000000E+00  0.19871577394E+04  0.19871577394E+04  0.00000000000E+00 0. -1.
       21   -1    0    0  501  503  0.00000000000E+00  0.00000000000E+00 -0.19042819134E+02  0.19042819134E+02  0.25500000920E-02 0.  1.
       25    2    1    2    0    0  0.45654947058E+02  0.34466039362E+02  0.14672590342E+04  0.14736843902E+04  0.12499730634E+03 0.  0.
        6    2    1    2  501    0 -0.45654947058E+02 -0.34466039362E+02  0.50085588613E+03  0.53251616834E+03  0.17159419807E+03 0.  0.
       24    2    4    4    0    0 -0.57192129567E+02  0.22367532995E+02  0.17622490384E+03  0.20271239912E+03  0.79157146290E+02 0.  0.
      -15    1    5    5    0    0  0.12983054880E+02 -0.11516127509E+01  0.18541118091E+01  0.13284629666E+02  0.17769999504E+01 0.  1.
       16    1    5    5    0    0 -0.70175184447E+02  0.23519145746E+02  0.17437079203E+03  0.18942776946E+03  0.00000000000E+00 0. -1.
        5    1    4    4  501    0  0.11537182509E+02 -0.56833572357E+02  0.32463098229E+03  0.32980376922E+03  0.46999998093E+01 0. -1.
        5    1    3    3  502    0  0.65318418871E+02 -0.26604372819E+02  0.90528693489E+03  0.90804229691E+03  0.46999998093E+01 0. -1.
       -5    1    3    3    0  502 -0.19663471813E+02  0.61070412181E+02  0.56197209929E+03  0.56564209333E+03  0.46999998093E+01 0. -1.
</event>
<event>
10   0  0.1583500E-03  0.1978388E+03  0.7818609E-02  0.1161840E+00
        2   -1    0    0  503    0  0.00000000000E+00  0.00000000000E+00  0.13718177511E+04  0.13718177511E+04  0.00000000000E+00 0.  1.
       21   -1    0    0  501  503  0.00000000000E+00  0.00000000000E+00 -0.26777796472E+02  0.26777796472E+02  0.25500000920E-02 0.  1.
       25    2    1    2    0    0 -0.70523377255E+02 -0.60031778112E+02  0.87331961295E+03  0.88706814852E+03  0.12500157048E+03 0.  0.
        6    2    1    2  501    0  0.70523377255E+02  0.60031778112E+02  0.47172034170E+03  0.51152739909E+03  0.17482230440E+03 0.  0.
       24    2    4    4    0    0  0.81284848006E+02  0.24895440573E+01  0.18044285361E+03  0.21438840296E+03  0.82397448735E+02 0.  0.
      -13    1    5    5    0    0  0.34893707119E+02  0.39200570208E+02  0.56874368946E+02  0.77388374503E+02  0.10565999895E+00 0.  1.
       14    1    5    5    0    0  0.46391140887E+02 -0.36711026151E+02  0.12356848467E+03  0.13700002846E+03  0.00000000000E+00 0. -1.
        5    1    4    4  501    0 -0.10761470751E+02  0.57542234055E+02  0.29127748809E+03  0.29713899613E+03  0.46999998093E+01 0. -1.
        5    1    3    3  502    0 -0.14787423970E+01  0.23116621836E+02  0.43334704871E+03  0.43399115142E+03  0.46999998093E+01 0.  1.
       -5    1    3    3    0  502 -0.69044634858E+02 -0.83148399948E+02  0.43997256424E+03  0.45307699710E+03  0.46999998093E+01 0.  1.
</event>
<event>
10   0  0.1583500E-03  0.1674259E+03  0.7818609E-02  0.1190107E+00
        2   -1    0    0  503    0  0.00000000000E+00  0.00000000000E+00  0.19504917287E+04  0.19504917287E+04  0.00000000000E+00 0.  1.
       21   -1    0    0  501  503  0.00000000000E+00  0.00000000000E+00 -0.56956985457E+02  0.56956985457E+02  0.25500000920E-02 0. -1.
       25    2    1    2    0    0  0.20388421476E+02  0.47743113017E+02  0.18192582717E+04  0.18242863821E+04  0.12500020885E+03 0.  0.
        6    2    1    2  501    0 -0.20388421476E+02 -0.47743113017E+02  0.74276471517E+02  0.18316233203E+03  0.15917397112E+03 0.  0.
       24    2    4    4    0    0 -0.13904911194E+02  0.31979293285E+02  0.37739794073E+02  0.95101462346E+02  0.80024835704E+02 0.  0.
      -11    1    5    5    0    0 -0.16824449885E+02 -0.50725059738E+01 -0.19880992709E+02  0.26533870848E+02  0.51099999109E-03 0.  1.
       12    1    5    5    0    0  0.29195386919E+01  0.37051799259E+02  0.57620786783E+02  0.68567591499E+02  0.00000000000E+00 0. -1.
        5    1    4    4  501    0 -0.64835102828E+01 -0.79722406302E+02  0.36536677444E+02  0.88060869681E+02  0.46999998093E+01 0. -1.
        5    1    3    3  502    0  0.69613915912E+01 -0.41891884444E+02  0.73253835356E+03  0.73378329253E+03  0.46999998093E+01 0.  1.
       -5    1    3    3    0  502  0.13427029885E+02  0.89634997461E+02  0.10867199182E+04  0.10905030896E+04  0.46999998093E+01 0.  1.
</event>
<event>
10   0  0.1583500E-03  0.2087087E+03  0.7818609E-02  0.1150813E+00
       -4   -1    0    0    0  501  0.00000000000E+00  0.00000000000E+00  0.63533910663E+02  0.63546602616E+02  0.00000000000E+00 0.  1.
       21   -1    0    0  501  503  0.00000000000E+00  0.00000000000E+00 -0.16263211420E+04  0.16263211420E+04  0.12699999809E+01 0.  1.
       25    2    1    2    0    0 -0.80979660197E+02  0.85118877427E+02 -0.74554509525E+02  0.18707169906E+03  0.12503806237E+03 0.  0.
       -6    2    1    2    0  503  0.80979660197E+02 -0.85118877427E+02 -0.14882327218E+04  0.15027960455E+04  0.17250041041E+03 0.  0.
      -24    2    4    4    0    0  0.56218909758E+02 -0.13719707371E+02 -0.42719677954E+03  0.43906191663E+03  0.83243510249E+02 0.  0.
       13    1    5    5    0    0  0.38819561065E+02 -0.18138505497E+02 -0.74762956814E+02  0.86171193438E+02  0.10565999895E+00 0. -1.
      -14    1    5    5    0    0  0.17399348693E+02  0.44187981264E+01 -0.35243382273E+03  0.35289072319E+03  0.00000000000E+00 0.  1.
       -5    1    4    4    0  503  0.24760750439E+02 -0.71399170056E+02 -0.10610359422E+04  0.10637341289E+04  0.46999998093E+01 0.  1.
        5    1    3    3  502    0 -0.56110880367E+02  0.10576928908E+03 -0.17177905862E+02  0.12104851860E+03  0.46999998093E+01 0.  1.
       -5    1    3    3    0  502 -0.24868779830E+02 -0.20650411655E+02 -0.57376603663E+02  0.66023180459E+02  0.46999998093E+01 0.  1.
</event>
<event>
10   0  0.1583500E-03  0.1955495E+03  0.7818609E-02  0.1163399E+00
       21   -1    0    0  501  503  0.00000000000E+00  0.00000000000E+00  0.32759769499E+03  0.32759769499E+03  0.00000000000E+00 0. -1.
       -4   -1    0    0    0  501  0.00000000000E+00  0.00000000000E+00 -0.10245314878E+03  0.10246101988E+03  0.12699999809E+01 0. -1.
       25    2    1    2    0    0 -0.89682163517E+02  0.21819109771E+02  0.16222289193E+03  0.22463540599E+03  0.12500333978E+03 0.  0.
       -6    2    1    2    0  503  0.89682163517E+02 -0.21819109771E+02  0.62921654290E+02  0.20542330888E+03  0.17239674373E+03 0.  0.
      -24    2    4    4    0    0  0.10489307323E+03 -0.51078522026E+02  0.85477919107E+02  0.16519446276E+03  0.79819569317E+02 0.  0.
       11    1    5    5    0    0  0.61364313227E+02 -0.14138559882E+02  0.87810665552E+02  0.10805642414E+03  0.51099999109E-03 0. -1.
      -12    1    5    5    0    0  0.43528760004E+02 -0.36939962144E+02 -0.23327464445E+01  0.57138038614E+02  0.00000000000E+00 0.  1.
       -5    1    4    4    0  503 -0.15210909714E+02  0.29259412255E+02 -0.22556264817E+02  0.40228846125E+02  0.46999998093E+01 0.  1.
        5    1    3    3  502    0  0.23926367995E+02 -0.22247757709E+02  0.27953172230E+02  0.43253943686E+02  0.46999998093E+01 0.  1.
       -5    1    3    3    0  502 -0.11360853151E+03  0.44066867480E+02  0.13426971970E+03  0.18138146230E+03  0.46999998093E+01 0.  1.
</event>
<event>
10   0  0.1583500E-03  0.1986353E+03  0.7818609E-02  0.1160374E+00
       21   -1    0    0  501  503  0.00000000000E+00  0.00000000000E+00  0.82405353886E+02  0.82405353886E+02  0.00000000000E+00 0.  1.
       -2   -1    0    0    0  501  0.00000000000E+00  0.00000000000E+00 -0.60772430605E+03  0.60772430605E+03  0.25500000920E-02 0.  1.
       25    2    1    2    0    0  0.94178366668E+02  0.28222571169E+02 -0.45071066106E+03  0.47794487350E+03  0.12500049536E+03 0.  0.
       -6    2    1    2    0  503 -0.94178366668E+02 -0.28222571169E+02 -0.74608291095E+02  0.21218478643E+03  0.17259753249E+03 0.  0.
      -24    2    4    4    0    0 -0.23149599648E+02 -0.13402246573E+02  0.24807148255E+02  0.89017228429E+02  0.81198203031E+02 0.  0.
       15    1    5    5    0    0  0.99211292105E+01  0.12450165429E+02  0.41005961135E+02  0.44023652750E+02  0.17769999504E+01 0. -1.
      -16    1    5    5    0    0 -0.33070728859E+02 -0.25852412003E+02 -0.16198812880E+02  0.44993575679E+02  0.00000000000E+00 0.  1.
       -5    1    4    4    0  503 -0.71028767019E+02 -0.14820324595E+02 -0.99415439350E+02  0.12316755800E+03  0.46999998093E+01 0.  1.
        5    1    3    3  502    0 -0.79750120639E+01 -0.25246628597E+02 -0.20182555632E+03  0.20360903284E+03  0.46999998093E+01 0.  1.
       -5    1    3    3    0  502  0.10215337873E+03  0.53469199766E+02 -0.24888510475E+03  0.27433584066E+03  0.46999998093E+01 0.  1.
</event>
<event>
10   0  0.1583500E-03  0.1819413E+03  0.7818609E-02  0.1178124E+00
       21   -1    0    0  501  503  0.00000000000E+00  0.00000000000E+00  0.12149371823E+02  0.12149371823E+02  0.00000000000E+00 0.  1.
        2   -1    0    0  503    0  0.00000000000E+00  0.00000000000E+00 -0.21051058295E+04  0.21051058295E+04  0.25500000920E-02 0.  1.
       25    2    1    2    0    0  0.50307035268E+02  0.28979939701E+02 -0.92718984335E+03  0.93737621000E+03  0.12499007466E+03 0.  0.
        6    2    1    2  501    0 -0.50307035268E+02 -0.28979939701E+02 -0.11657666143E+04  0.11798789913E+04  0.17242969693E+03 0.  0.
       24    2    4    4    0    0  0.77845952748E+01 -0.55372530253E+02 -0.36173318463E+03  0.37330410178E+03  0.73337156421E+02 0.  0.
      -11    1    5    5    0    0 -0.16420940750E+02 -0.26494291346E+02 -0.47464253909E+02  0.56784242254E+02  0.51099999109E-03 0.  1.
       12    1    5    5    0    0  0.24205536025E+02 -0.28878238907E+02 -0.31426893072E+03  0.31651985952E+03  0.00000000000E+00 0. -1.
        5    1    4    4  501    0 -0.58091630543E+02  0.26392590552E+02 -0.80403342967E+03  0.80657488952E+03  0.46999998093E+01 0. -1.
        5    1    3    3  502    0 -0.16255612541E+02  0.61343035417E+02 -0.42037968002E+03  0.42516864689E+03  0.46999998093E+01 0.  1.
       -5    1    3    3    0  502  0.66562647809E+02 -0.32363095716E+02 -0.50681016333E+03  0.51220756310E+03  0.46999998093E+01 0.  1.
</event>
<event>
10   0  0.1583500E-03  0.1992932E+03  0.7818609E-02  0.1156608E+00
       -2   -1    0    0    0  501  0.00000000000E+00  0.00000000000E+00  0.62280233943E+02  0.62280233995E+02  0.00000000000E+00 0.  1.
       21   -1    0    0  501  503  0.00000000000E+00  0.00000000000E+00 -0.55511307224E+03  0.55511307224E+03  0.25500000920E-02 0. -1.
       25    2    1    2    0    0 -0.11400484561E+03  0.30622970049E+02 -0.24652591784E+03  0.30055756113E+03  0.12499979307E+03 0.  0.
       -6    2    1    2    0  503  0.11400484561E+03 -0.30622970049E+02 -0.24630692046E+03  0.31683574510E+03  0.16057060500E+03 0.  0.
      -24    2    4    4    0    0  0.13157857278E+03  0.30570322112E+01 -0.15946488348E+03  0.22193154170E+03  0.80636802248E+02 0.  0.
       13    1    5    5    0    0  0.18562242329E+02  0.16231775643E+02 -0.78504625121E+02  0.82286175693E+02  0.10565999895E+00 0. -1.
      -14    1    5    5    0    0  0.11301633045E+03 -0.13174743432E+02 -0.80960258361E+02  0.13964536601E+03  0.00000000000E+00 0.  1.
       -5    1    4    4    0  503 -0.17573727168E+02 -0.33680002260E+02 -0.86842036975E+02  0.94904203401E+02  0.46999998093E+01 0.  1.
        5    1    3    3  502    0 -0.54421166983E+02  0.53898660314E+01 -0.22591195361E+03  0.23248444002E+03  0.46999998093E+01 0.  1.
       -5    1    3    3    0  502 -0.59583678631E+02  0.25233104018E+02 -0.20613964228E+02  0.68073121105E+02  0.46999998093E+01 0.  1.
</event>
<event>
10   0  0.1583500E-03  0.2733324E+03  0.7818609E-02  0.1103436E+00
       21   -1    0    0  501  503  0.00000000000E+00  0.00000000000E+00  0.22483577271E+03  0.22483577271E+03  0.00000000000E+00 0.  1.
        2   -1    0    0  503    0  0.00000000000E+00  0.00000000000E+00 -0.33194625221E+03  0.33194625222E+03  0.25500000920E-02 0.  1.
       25    2    1    2    0    0 -0.14163933358E+03 -0.15779209485E+03 -0.13720176603E+03  0.28179824764E+03  0.12500352698E+03 0.  0.
        6    2    1    2  501    0  0.14163933358E+03  0.15779209485E+03  0.30091286533E+02  0.27498377729E+03  0.17248346655E+03 0.  0.
       24    2    4    4    0    0  0.16393775470E+03  0.92925869877E+02  0.11964218916E+02  0.20388154592E+03  0.76900829153E+02 0.  0.
      -11    1    5    5    0    0  0.17264094600E+02  0.29023750473E+02  0.26930558427E+02  0.43193541547E+02  0.51099999109E-03 0.  1.
       12    1    5    5    0    0  0.14667366010E+03  0.63902119403E+02 -0.14966339511E+02  0.16068800437E+03  0.00000000000E+00 0. -1.
        5    1    4    4  501    0 -0.22298421118E+02  0.64866224976E+02  0.18127067617E+02  0.71102231368E+02  0.46999998093E+01 0. -1.
        5    1    3    3  502    0  0.22791379353E+02 -0.22337418284E+02 -0.26040771174E+02  0.41456229809E+02  0.46999998093E+01 0. -1.
       -5    1    3    3    0  502 -0.16443071293E+03 -0.13545467657E+03 -0.11116099485E+03  0.24034201783E+03  0.46999998093E+01 0. -1.
</event>
<event>
10   0  0.1583500E-03  0.3746607E+03  0.7818609E-02  0.1054805E+00
       21   -1    0    0  501  503  0.00000000000E+00  0.00000000000E+00  0.24817071395E+03  0.24817071395E+03  0.00000000000E+00 0.  1.
       -4   -1    0    0    0  501  0.00000000000E+00  0.00000000000E+00 -0.59421878087E+03  0.59422013803E+03  0.12699999809E+01 0.  1.
       25    2    1    2    0    0 -0.21480588336E+03  0.25382111220E+03 -0.29989990785E+03  0.46489876769E+03  0.12499673976E+03 0.  0.
       -6    2    1    2    0  503  0.21480588336E+03 -0.25382111220E+03 -0.46148159078E+02  0.37749208429E+03  0.17263805083E+03 0.  0.
      -24    2    4    4    0    0  0.54913002606E+02 -0.62935195657E+02 -0.54802099511E+02  0.12829307320E+03  0.80495750271E+02 0.  0.
       11    1    5    5    0    0  0.25152024839E+02 -0.51893539718E+02 -0.71954724233E+02  0.92211963203E+02  0.51099999109E-03 0. -1.
      -12    1    5    5    0    0  0.29760977767E+02 -0.11041655939E+02  0.17152624722E+02  0.36081109993E+02  0.00000000000E+00 0.  1.
       -5    1    4    4    0  503  0.15989288075E+03 -0.19088591654E+03  0.86539404334E+01  0.24919901110E+03  0.46999998093E+01 0.  1.
        5    1    3    3  502    0 -0.21821696031E+03  0.26423977621E+03 -0.29418419855E+03  0.45167215298E+03  0.46999998093E+01 0.  1.
       -5    1    3    3    0  502  0.34110769468E+01 -0.10418664017E+02 -0.57157092950E+01  0.13226614714E+02  0.46999998093E+01 0.  1.
</event>
<event>
10   0  0.1583500E-03  0.1766635E+03  0.7818609E-02  0.1184899E+00
        2   -1    0    0  503    0  0.00000000000E+00  0.00000000000E+00  0.80468289265E+03  0.80468289265E+03  0.00000000000E+00 0. -1.
       21   -1    0    0  501  503  0.00000000000E+00  0.00000000000E+00 -0.63824768316E+02  0.63824768316E+02  0.25500000920E-02 0. -1.
       25    2    1    2    0    0  0.24597943669E+02  0.22308304679E+02  0.66291874055E+03  0.67541563529E+03  0.12498921765E+03 0.  0.
        6    2    1    2  501    0 -0.24597943669E+02 -0.22308304679E+02  0.77939383782E+02  0.19309202568E+03  0.17351444766E+03 0.  0.
       24    2    4    4    0    0 -0.32507849692E+02  0.41075495986E+02  0.84681372649E+02  0.12869002872E+03  0.81524425522E+02 0.  0.
      -15    1    5    5    0    0  0.21611731569E+02  0.31381221915E+02  0.52790854815E+02  0.65129717573E+02  0.17769999504E+01 0.  1.
       16    1    5    5    0    0 -0.54119581261E+02  0.96942740711E+01  0.31890517834E+02  0.63560311149E+02  0.00000000000E+00 0. -1.
        5    1    4    4  501    0  0.79099060231E+01 -0.63383800665E+02 -0.67419888674E+01  0.64401996958E+02  0.46999998093E+01 0. -1.
        5    1    3    3  502    0 -0.43266177956E+02 -0.25283361853E+01  0.11970669063E+03  0.12739755264E+03  0.46999998093E+01 0.  1.
       -5    1    3    3    0  502  0.67864121625E+02  0.24836640864E+02  0.54321204992E+03  0.54801808265E+03  0.46999998093E+01 0.  1.
</event>
<event>
10   0  0.1583500E-03  0.1832573E+03  0.7818609E-02  0.1176708E+00
       21   -1    0    0  501  503  0.00000000000E+00  0.00000000000E+00  0.22714331587E+03  0.22714331587E+03  0.00000000000E+00 0. -1.
        2   -1    0    0  503    0  0.00000000000E+00  0.00000000000E+00 -0.13144530989E+03  0.13144530991E+03  0.25500000920E-02 0. -1.
       25    2    1    2    0    0 -0.39278727821E+02  0.47146885893E+02 -0.21732954026E+02  0.14093459823E+03  0.12499836951E+03 0.  0.
        6    2    1    2  501    0  0.39278727821E+02 -0.47146885893E+02  0.11743096001E+03  0.21765402755E+03  0.17267772883E+03 0.  0.
       24    2    4    4    0    0  0.53326378042E+02  0.14931486945E+02  0.17382112341E+02  0.98982536584E+02  0.80179503751E+02 0.  0.
      -13    1    5    5    0    0  0.34340910427E+02 -0.14594397106E+02 -0.24269229353E+02  0.44511809818E+02  0.10565999895E+00 0.  1.
       14    1    5    5    0    0  0.18985467615E+02  0.29525884051E+02  0.41651341694E+02  0.54470726766E+02  0.00000000000E+00 0. -1.
        5    1    4    4  501    0 -0.14047650221E+02 -0.62078372839E+02  0.10004884767E+03  0.11867149097E+03  0.46999998093E+01 0. -1.
        5    1    3    3  502    0 -0.72954510296E+02  0.50996497394E+02  0.15381231606E+02  0.90452615235E+02  0.46999998093E+01 0.  1.
       -5    1    3    3    0  502  0.33675782474E+02 -0.38496115003E+01 -0.37114185632E+02  0.50481982997E+02  0.46999998093E+01 0.  1.
</event>
<event>
10   0  0.1583500E-03  0.2613778E+03  0.7818609E-02  0.1110718E+00
        2   -1    0    0  503    0  0.00000000000E+00  0.00000000000E+00  0.29006928624E+04  0.29006928624E+04  0.00000000000E+00 0. -1.
       21   -1    0    0  501  503  0.00000000000E+00  0.00000000000E+00 -0.23534293265E+02  0.23534293265E+02  0.25500000920E-02 0. -1.
       25    2    1    2    0    0  0.73793937807E+02  0.18302055958E+03  0.18341908051E+04  0.18490062040E+04  0.12500384922E+03 0.  0.
        6    2    1    2  501    0 -0.73793937807E+02 -0.18302055958E+03  0.10429677640E+04  0.10752209517E+04  0.17139506311E+03 0.  0.
       24    2    4    4    0    0 -0.55687187120E+02 -0.35367789297E+02  0.29670223321E+03  0.31425871380E+03  0.79839718710E+02 0.  0.
      -11    1    5    5    0    0  0.62005969358E+01 -0.18255251931E+02  0.12696011176E+02  0.23084417374E+02  0.51099999109E-03 0.  1.
       12    1    5    5    0    0 -0.61887784055E+02 -0.17112537365E+02  0.28400622203E+03  0.29117429643E+03  0.00000000000E+00 0. -1.
        5    1    4    4  501    0 -0.18106750688E+02 -0.14765277028E+03  0.74626553079E+03  0.76096223785E+03  0.46999998093E+01 0. -1.
        5    1    3    3  502    0  0.75830951268E+02  0.19724290071E+03  0.17869052166E+04  0.17993630645E+04  0.46999998093E+01 0. -1.
       -5    1    3    3    0  502 -0.20370134613E+01 -0.14222341131E+02  0.47285588568E+02  0.49643139461E+02  0.46999998093E+01 0. -1.
</event>
<event>
10   0  0.1583500E-03  0.2041936E+03  0.7818609E-02  0.1154961E+00
       21   -1    0    0  501  503  0.00000000000E+00  0.00000000000E+00  0.44985262261E+03  0.44985262261E+03  0.00000000000E+00 0.  1.
        4   -1    0    0  503    0  0.00000000000E+00  0.00000000000E+00 -0.39702087295E+03  0.39702290419E+03  0.12699999809E+01 0.  1.
       25    2    1    2    0    0  0.44059537734E+02 -0.10017616407E+03 -0.35434857546E+03  0.39136389022E+03  0.12500509958E+03 0.  0.
        6    2    1    2  501    0 -0.44059537734E+02  0.10017616407E+03  0.40718032513E+03  0.45551163659E+03  0.17239062383E+03 0.  0.
       24    2    4    4    0    0  0.67470775715E+01  0.94779969538E+02  0.37745804836E+03  0.39621631799E+03  0.74054214486E+02 0.  0.
      -11    1    5    5    0    0 -0.96374618496E+01  0.90132269782E+02  0.36213249244E+03  0.37330503454E+03  0.51099999109E-03 0.  1.
       12    1    5    5    0    0  0.16384539421E+02  0.46476997558E+01  0.15325555920E+02  0.22911283450E+02  0.00000000000E+00 0. -1.
        5    1    4    4  501    0 -0.50806615306E+02  0.53961945331E+01  0.29722276765E+02  0.59295318606E+02  0.46999998093E+01 0. -1.
        5    1    3    3  502    0  0.49210115015E+02 -0.46033216205E+02 -0.31958276484E+03  0.32664342331E+03  0.46999998093E+01 0.  1.
       -5    1    3    3    0  502 -0.51505772811E+01 -0.54142947865E+02 -0.34765810625E+02  0.64720466906E+02  0.46999998093E+01 0.  1.
</event>
<event>
10   0  0.1583500E-03  0.2911134E+03  0.7818609E-02  0.1093023E+00
       21   -1    0    0  501  503  0.00000000000E+00  0.00000000000E+00  0.17469077005E+03  0.17469077005E+03  0.00000000000E+00 0. -1.
        2   -1    0    0  503    0  0.00000000000E+00  0.00000000000E+00 -0.58253043720E+03  0.58253043721E+03  0.25500000920E-02 0.  1.
       25    2    1    2    0    0  0.12182887018E+03  0.20228250386E+03 -0.38034912699E+03  0.46481270633E+03  0.12499963433E+03 0.  0.
        6    2    1    2  501    0 -0.12182887018E+03 -0.20228250386E+03 -0.27490540158E+02  0.29240850093E+03  0.17025427055E+03 0.  0.
       24    2    4    4    0    0 -0.17856314013E+02 -0.71252410355E+02  0.34951168738E+02  0.11380213249E+03  0.79583837751E+02 0.  0.
      -11    1    5    5    0    0  0.62211474828E+01 -0.41050570958E+02 -0.20436847716E+02  0.46276525332E+02  0.51099999109E-03 0.  1.
       12    1    5    5    0    0 -0.24077461496E+02 -0.30201839397E+02  0.55388016454E+02  0.67525607156E+02  0.00000000000E+00 0. -1.
        5    1    4    4  501    0 -0.10397255616E+03 -0.13103009351E+03 -0.62441708896E+02  0.17860636844E+03  0.46999998093E+01 0. -1.
        5    1    3    3  502    0  0.77871395932E+02  0.20734317387E+03 -0.29951256545E+03  0.37253860594E+03  0.46999998093E+01 0.  1.
       -5    1    3    3    0  502  0.43957474245E+02 -0.50606700024E+01 -0.80836561547E+02  0.92274100395E+02  0.46999998093E+01 0.  1.
</event>
<event>
10   0  0.1583500E-03  0.1789422E+03  0.7818609E-02  0.1181857E+00
        2   -1    0    0  503    0  0.00000000000E+00  0.00000000000E+00  0.29724723281E+04  0.29724723281E+04  0.00000000000E+00 0. -1.
       21   -1    0    0  501  503  0.00000000000E+00  0.00000000000E+00 -0.37772796030E+02  0.37772796030E+02  0.25500000920E-02 0. -1.
       25    2    1    2    0    0 -0.21316407991E+02  0.40780603710E+02  0.27494834145E+04  0.27527080934E+04  0.12500141628E+03 0.  0.
        6    2    1    2  501    0  0.21316407991E+02 -0.40780603710E+02  0.18521611760E+03  0.25753703074E+03  0.17292444910E+03 0.  0.
       24    2    4    4    0    0  0.66734444146E+02  0.15257821777E+02  0.91447662635E+02  0.13914059379E+03  0.79442700590E+02 0.  0.
      -15    1    5    5    0    0  0.43440468102E+02 -0.30038730390E+02  0.56545424924E+02  0.77394718172E+02  0.17769999504E+01 0.  1.
       16    1    5    5    0    0  0.23293976044E+02  0.45296552167E+02  0.34902237712E+02  0.61745875615E+02  0.00000000000E+00 0. -1.
        5    1    4    4  501    0 -0.45418036156E+02 -0.56038425487E+02  0.93768454967E+02  0.11839643696E+03  0.46999998093E+01 0. -1.
        5    1    3    3  502    0  0.22820204785E+02  0.62030655617E+02  0.84685358308E+03  0.84944196103E+03  0.46999998093E+01 0.  1.
       -5    1    3    3    0  502 -0.44136612776E+02 -0.21250051908E+02  0.19026298314E+04  0.19032661324E+04  0.46999998093E+01 0.  1.
</event>
<event>
10   0  0.1583500E-03  0.1727056E+03  0.7818609E-02  0.1188832E+00
       21   -1    0    0  501  503  0.00000000000E+00  0.00000000000E+00  0.19417146421E+03  0.19417146421E+03  0.00000000000E+00 0.  1.
        2   -1    0    0  503    0  0.00000000000E+00  0.00000000000E+00 -0.13341471377E+03  0.13341471379E+03  0.25500000920E-02 0.  1.
       25    2    1    2    0    0  0.16716802938E+02 -0.13584011003E+02 -0.33011465177E+02  0.13106723937E+03  0.12499955019E+03 0.  0.
        6    2    1    2  501    0 -0.16716802938E+02  0.13584011003E+02  0.93768215621E+02  0.19651893863E+03  0.17135704866E+03 0.  0.
       24    2    4    4    0    0 -0.26071166504E+02 -0.49743861249E+01  0.13000876079E+03  0.15447865636E+03  0.79100740513E+02 0.  0.
      -13    1    5    5    0    0  0.11934984730E+02 -0.31498564970E+02  0.77126854555E+02  0.84161548900E+02  0.10565999895E+00 0.  1.
       14    1    5    5    0    0 -0.38006151234E+02  0.26524178845E+02  0.52881906231E+02  0.70317107461E+02  0.00000000000E+00 0. -1.
        5    1    4    4  501    0  0.93543635658E+01  0.18558397128E+02 -0.36240545165E+02  0.42040282274E+02  0.46999998093E+01 0. -1.
        5    1    3    3  502    0 -0.50642525222E+02  0.89860496225E+01 -0.30172282997E+02  0.59815308309E+02  0.46999998093E+01 0. -1.
       -5    1    3    3    0  502  0.67359328160E+02 -0.22570060625E+02 -0.28391821800E+01  0.71251931065E+02  0.46999998093E+01 0. -1.
</event>
<event>
10   0  0.1583500E-03  0.1921635E+03  0.7818609E-02  0.1166625E+00
        2   -1    0    0  503    0  0.00000000000E+00  0.00000000000E+00  0.90535674533E+03  0.90535674533E+03  0.00000000000E+00 0.  1.
       21   -1    0    0  501  503  0.00000000000E+00  0.00000000000E+00 -0.59285337022E+02  0.59285337022E+02  0.25500000920E-02 0.  1.
       25    2    1    2    0    0 -0.66139937164E+02 -0.55708706503E+02  0.71752465699E+03  0.73344722258E+03  0.12500097461E+03 0.  0.
        6    2    1    2  501    0  0.66139937164E+02  0.55708706503E+02  0.12854675131E+03  0.23119485977E+03  0.17160665676E+03 0.  0.
       24    2    4    4    0    0 -0.10600666122E+02  0.55250158525E+01  0.80101222402E+01  0.79673600713E+02  0.78363388581E+02 0.  0.
      -11    1    5    5    0    0 -0.67223581052E+01  0.35345326997E+02 -0.17711599018E+02  0.40102156788E+02  0.51099999109E-03 0.  1.
       12    1    5    5    0    0 -0.38783080168E+01 -0.29820311144E+02  0.25721721259E+02  0.39571443925E+02  0.00000000000E+00 0. -1.
        5    1    4    4  501    0  0.76740603286E+02  0.50183690651E+02  0.12053662907E+03  0.15152125906E+03  0.46999998093E+01 0. -1.
        5    1    3    3  502    0 -0.49569381461E+02 -0.37204376923E+01  0.85181032401E+02  0.98736333303E+02  0.46999998093E+01 0.  1.
       -5    1    3    3    0  502 -0.16570555703E+02 -0.51988268811E+02  0.63234362459E+03  0.63471088928E+03  0.46999998093E+01 0.  1.
</event>
<event>
10   0  0.1583500E-03  0.1813608E+03  0.7818609E-02  0.1178771E+00
        2   -1    0    0  503    0  0.00000000000E+00  0.00000000000E+00  0.62119505775E+03  0.62119505776E+03  0.00000000000E+00 0.  1.
       21   -1    0    0  501  503  0.00000000000E+00  0.00000000000E+00 -0.10172589042E+03  0.10172589042E+03  0.25500000920E-02 0. -1.
       25    2    1    2    0    0  0.53569821435E+02 -0.17555665363E+02  0.52385699887E+03  0.54150709617E+03  0.12500341107E+03 0.  0.
        6    2    1    2  501    0 -0.53569821435E+02  0.17555665363E+02 -0.43878315338E+01  0.18141385201E+03  0.17237692850E+03 0.  0.
       24    2    4    4    0    0 -0.54004787228E+02  0.37172286775E+02 -0.59636402228E+02  0.12259637507E+03  0.84705813039E+02 0.  0.
      -13    1    5    5    0    0 -0.19410579126E+02  0.17914252724E+02  0.20351950347E+02  0.33345225740E+02  0.10565999895E+00 0.  1.
       14    1    5    5    0    0 -0.34594208101E+02  0.19258034051E+02 -0.79988352574E+02  0.89251149333E+02  0.00000000000E+00 0. -1.
        5    1    4    4  501    0  0.43496579292E+00 -0.19616621412E+02  0.55248570694E+02  0.58817476933E+02  0.46999998093E+01 0. -1.
        5    1    3    3  502    0  0.76582972788E+02 -0.66529129208E+01  0.50125025029E+03  0.50713224743E+03  0.46999998093E+01 0. -1.
       -5    1    3    3    0  502 -0.23013151354E+02 -0.10902752442E+02  0.22606748584E+02  0.34374848738E+02  0.46999998093E+01 0. -1.
</event>
<event>
10   0  0.1583500E-03  0.1799932E+03  0.7818609E-02  0.1179677E+00
       21   -1    0    0  501  503  0.00000000000E+00  0.00000000000E+00  0.18286197068E+03  0.18286197068E+03  0.00000000000E+00 0. -1.
        2   -1    0    0  503    0  0.00000000000E+00  0.00000000000E+00 -0.43907409735E+03  0.43907409736E+03  0.25500000920E-02 0. -1.
       25    2    1    2    0    0 -0.56358206069E+02  0.95121666997E+01 -0.37959616310E+03  0.40371332597E+03  0.12499789525E+03 0.  0.
        6    2    1    2  501    0  0.56358206069E+02 -0.95121666997E+01  0.12338403643E+03  0.21822274208E+03  0.17067752051E+03 0.  0.
       24    2    4    4    0    0 -0.20207878388E+02 -0.42655592641E+02  0.48822288969E+02  0.10622990233E+03  0.81690380807E+02 0.  0.
      -13    1    5    5    0    0 -0.70802004379E+01 -0.55546563401E+02  0.21223315880E+01  0.56036286452E+02  0.10565999895E+00 0.  1.
       14    1    5    5    0    0 -0.13127677950E+02  0.12890970760E+02  0.46699957381E+02  0.50193615878E+02  0.00000000000E+00 0. -1.
        5    1    4    4  501    0  0.76566084457E+02  0.33143425941E+02  0.74561747459E+02  0.11199283975E+03  0.46999998093E+01 0. -1.
        5    1    3    3  502    0  0.12608936668E+02 -0.98591453371E+01  0.70399076910E+00  0.16696515561E+02  0.46999998093E+01 0. -1.
       -5    1    3    3    0  502 -0.68967142736E+02  0.19371312037E+02 -0.38030015387E+03  0.38701681041E+03  0.46999998093E+01 0. -1.
</event>
<event>
10   0  0.1583500E-03  0.3298529E+03  0.7818609E-02  0.1073655E+00
       21   -1    0    0  501  503  0.00000000000E+00  0.00000000000E+00  0.48414148145E+02  0.48414148145E+02  0.00000000000E+00 0. -1.
        2   -1    0    0  503    0  0.00000000000E+00  0.00000000000E+00 -0.21381836643E+04  0.21381836643E+04  0.25500000920E-02 0. -1.
       25    2    1    2    0    0  0.17293125372E+03  0.22275479705E+03 -0.11486582079E+04  0.11893548913E+04  0.12499784300E+03 0.  0.
        6    2    1    2  501    0 -0.17293125372E+03 -0.22275479705E+03 -0.94111130828E+03  0.99724292117E+03  0.17110824393E+03 0.  0.
       24    2    4    4    0    0 -0.36299943670E+02 -0.14031820528E+03 -0.56044901184E+03  0.58445995099E+03  0.80519903076E+02 0.  0.
      -11    1    5    5    0    0  0.23191008774E+02 -0.68981464672E+02 -0.23438269240E+03  0.24542109089E+03  0.51099999109E-03 0.  1.
       12    1    5    5    0    0 -0.59490952443E+02 -0.71336740613E+02 -0.32606631944E+03  0.33903886010E+03  0.00000000000E+00 0. -1.
        5    1    4    4  501    0 -0.13663131005E+03 -0.82436591763E+02 -0.38066229644E+03  0.41278297018E+03  0.46999998093E+01 0. -1.
        5    1    3    3  502    0  0.11217137026E+03  0.19114119050E+03 -0.66805181193E+03  0.70386979224E+03  0.46999998093E+01 0. -1.
       -5    1    3    3    0  502  0.60759883457E+02  0.31613606546E+02 -0.48060639597E+03  0.48548509906E+03  0.46999998093E+01 0. -1.
</event>
<event>
10   0  0.1583500E-03  0.1913840E+03  0.7818609E-02  0.1167223E+00
       21   -1    0    0  501  503  0.00000000000E+00  0.00000000000E+00  0.80135475702E+03  0.80135475702E+03  0.00000000000E+00 0. -1.
       -4   -1    0    0    0  501  0.00000000000E+00  0.00000000000E+00 -0.45156220707E+02  0.45174076288E+02  0.12699999809E+01 0. -1.
       25    2    1    2    0    0 -0.39036450245E+02 -0.76696100660E+02  0.16070986802E+03  0.22104134322E+03  0.12500190970E+03 0.  0.
       -6    2    1    2    0  503  0.39036450245E+02  0.76696100660E+02  0.59548866829E+03  0.62548749009E+03  0.17094358686E+03 0.  0.
      -24    2    4    4    0    0 -0.37540675483E+01  0.11268669880E+03  0.41672135042E+03  0.43812101628E+03  0.74705795684E+02 0.  0.
       15    1    5    5    0    0 -0.30856381741E+02  0.78424044139E+02  0.33514954046E+03  0.34558764329E+03  0.17769999504E+01 0. -1.
      -16    1    5    5    0    0  0.27102314193E+02  0.34262654657E+02  0.81571809954E+02  0.92533372995E+02  0.00000000000E+00 0.  1.
       -5    1    4    4    0  503  0.42790517793E+02 -0.35990598136E+02  0.17876731788E+03  0.18736647381E+03  0.46999998093E+01 0.  1.
        5    1    3    3  502    0  0.30042475002E+02 -0.73664009945E+02  0.10670076987E+03  0.13317687846E+03  0.46999998093E+01 0. -1.
       -5    1    3    3    0  502 -0.69078925247E+02 -0.30320907156E+01  0.54009098148E+02  0.87864464765E+02  0.46999998093E+01 0. -1.
</event>
<event>
10   0  0.1583500E-03  0.1794747E+03  0.7818609E-02  0.1178690E+00
        2   -1    0    0  503    0  0.00000000000E+00  0.00000000000E+00  0.15326367789E+04  0.15326367789E+04  0.00000000000E+00 0.  1.
       21   -1    0    0  501  503  0.00000000000E+00  0.00000000000E+00 -0.27883695577E+02  0.27883695577E+02  0.25500000920E-02 0. -1.
       25    2    1    2    0    0  0.58101182345E+02 -0.33073434878E+02  0.11882243135E+04  0.11966501226E+04  0.12499958932E+03 0.  0.
        6    2    1    2  501    0 -0.58101182345E+02  0.33073434878E+02  0.31652876987E+03  0.36387035189E+03  0.16655801195E+03 0.  0.
       24    2    4    4    0    0 -0.59239725842E+02 -0.71595141700E+00  0.89185642423E+02  0.13397905909E+03  0.80538511019E+02 0.  0.
      -15    1    5    5    0    0 -0.19472944048E+01 -0.19887460807E+02  0.66475478639E+02  0.69436662088E+02  0.17769999504E+01 0.  1.
       16    1    5    5    0    0 -0.57292431437E+02  0.19171509390E+02  0.22710163784E+02  0.64542397007E+02  0.00000000000E+00 0. -1.
        5    1    4    4  501    0  0.11385434970E+01  0.33789386295E+02  0.22734312744E+03  0.22989129279E+03  0.46999998093E+01 0. -1.
        5    1    3    3  502    0  0.10233921135E+02 -0.53333946565E+02  0.99528489153E+03  0.99677647860E+03  0.46999998093E+01 0. -1.
       -5    1    3    3    0  502  0.47867261210E+02  0.20260511688E+02  0.19293942197E+03  0.19987364403E+03  0.46999998093E+01 0. -1.
</event>
<event>
10   0  0.1583500E-03  0.2154853E+03  0.7818609E-02  0.1144727E+00
        4   -1    0    0  503    0  0.00000000000E+00  0.00000000000E+00  0.10244416010E+04  0.10244423882E+04  0.00000000000E+00 0. -1.
       21   -1    0    0  501  503  0.00000000000E+00  0.00000000000E+00 -0.11915576619E+03  0.11915576619E+03  0.12699999809E+01 0.  1.
       25    2    1    2    0    0  0.33466320183E+02 -0.12537415297E+03  0.91039442213E+03  0.92805226426E+03  0.12499731405E+03 0.  0.
        6    2    1    2  501    0 -0.33466320183E+02  0.12537415297E+03 -0.51085873111E+01  0.21554589015E+03  0.17203273025E+03 0.  0.
       24    2    4    4    0    0 -0.32291753283E+02  0.13684978751E+03  0.42922760324E+02  0.16592563068E+03  0.76930682384E+02 0.  0.
      -11    1    5    5    0    0  0.16585645739E+02  0.57717703080E+01  0.15383590851E+02  0.23346345427E+02  0.51099999109E-03 0.  1.
       12    1    5    5    0    0 -0.48877399022E+02  0.13107801720E+03  0.27539169473E+02  0.14257928525E+03  0.00000000000E+00 0. -1.
        5    1    4    4  501    0 -0.11745669005E+01 -0.11475634543E+02 -0.48031347635E+02  0.49620259466E+02  0.46999998093E+01 0. -1.
        5    1    3    3  502    0  0.37896727529E+02 -0.79708276838E+01  0.76130664866E+02  0.85543346805E+02  0.46999998093E+01 0.  1.
       -5    1    3    3    0  502 -0.44304073455E+01 -0.11740332528E+03  0.83426375727E+03  0.84250891745E+03  0.46999998093E+01 0.  1.
</event>
<event>
10   0  0.1583500E-03  0.1783976E+03  0.7818609E-02  0.1181095E+00
        2   -1    0    0  503    0  0.00000000000E+00  0.00000000000E+00  0.26237481511E+04  0.26237481511E+04  0.00000000000E+00 0. -1.
       21   -1    0    0  501  503  0.00000000000E+00  0.00000000000E+00 -0.26134226536E+02  0.26134226536E+02  0.25500000920E-02 0. -1.
       25    2    1    2    0    0  0.44891259088E+02 -0.32510852151E+02  0.22915150765E+04  0.22955912433E+04  0.12500251927E+03 0.  0.
        6    2    1    2  501    0 -0.44891259088E+02  0.32510852151E+02  0.30609884808E+03  0.35429113435E+03  0.16956863636E+03 0.  0.
       24    2    4    4    0    0 -0.30179205219E+02  0.75426250044E+02  0.27960887116E+03  0.30154661065E+03  0.78417688939E+02 0.  0.
      -11    1    5    5    0    0 -0.23995895238E+02 -0.95098685679E+00  0.14222197522E+03  0.14423521622E+03  0.51099999109E-03 0.  1.
       12    1    5    5    0    0 -0.61833099815E+01  0.76377236901E+02  0.13738689595E+03  0.15731139443E+03  0.00000000000E+00 0. -1.
        5    1    4    4  501    0 -0.14712053869E+02 -0.42915397893E+02  0.26489976911E+02  0.52744523700E+02  0.46999998093E+01 0. -1.
        5    1    3    3  502    0 -0.27861364107E+02  0.19224374132E+02  0.27800628756E+03  0.28009894340E+03  0.46999998093E+01 0.  1.
       -5    1    3    3    0  502  0.72752623195E+02 -0.51735226283E+02  0.20135087889E+04  0.20154922999E+04  0.46999998093E+01 0.  1.
</event>
<event>
10   0  0.1583500E-03  0.1724345E+03  0.7818609E-02  0.1187756E+00
        2   -1    0    0  503    0  0.00000000000E+00  0.00000000000E+00  0.95186711916E+03  0.95186711916E+03  0.00000000000E+00 0.  1.
       21   -1    0    0  501  503  0.00000000000E+00  0.00000000000E+00 -0.41642153814E+02  0.41642153814E+02  0.25500000920E-02 0.  1.
       25    2    1    2    0    0 -0.34093947529E+02  0.15579445292E+02  0.73923869563E+03  0.75067199261E+03  0.12501789869E+03 0.  0.
        6    2    1    2  501    0  0.34093947529E+02 -0.15579445292E+02  0.17098626971E+03  0.24283728037E+03  0.16831079565E+03 0.  0.
       24    2    4    4    0    0 -0.40354144630E+02 -0.25117507493E+02  0.67346990945E+02  0.11478774636E+03  0.79882810132E+02 0.  0.
      -11    1    5    5    0    0 -0.14799855387E+02  0.99462731157E+01 -0.13948292032E+02  0.22638880698E+02  0.51099999109E-03 0.  1.
       12    1    5    5    0    0 -0.25554289243E+02 -0.35063780608E+02  0.81295282977E+02  0.92148865667E+02  0.00000000000E+00 0. -1.
        5    1    4    4  501    0  0.74448092160E+02  0.95380622005E+01  0.10363927877E+03  0.12804953400E+03  0.46999998093E+01 0. -1.
        5    1    3    3  502    0 -0.87102519172E+01  0.55919483390E+02  0.61347259358E+03  0.61609542295E+03  0.46999998093E+01 0. -1.
       -5    1    3    3    0  502 -0.25383695612E+02 -0.40340038098E+02  0.12576610205E+03  0.13457656966E+03  0.46999998093E+01 0. -1.
</event>
<event>
10   0  0.1583500E-03  0.2722163E+03  0.7818609E-02  0.1103961E+00
        2   -1    0    0  503    0  0.00000000000E+00  0.00000000000E+00  0.11189882811E+04  0.11189882811E+04  0.00000000000E+00 0. -1.
       21   -1    0    0  501  503  0.00000000000E+00  0.00000000000E+00 -0.20491379072E+03  0.20491379072E+03  0.25500000920E-02 0. -1.
       25    2    1    2    0    0 -0.70524605324E+02  0.19958829178E+03  0.10067597021E+04  0.10363394885E+04  0.12500092645E+03 0.  0.
        6    2    1    2  501    0  0.70524605324E+02 -0.19958829178E+03 -0.92685211676E+02  0.28756258331E+03  0.17115047380E+03 0.  0.
       24    2    4    4    0    0  0.38562085058E+01 -0.67372716769E+02  0.70341492142E+01  0.10898018119E+03  0.85283335586E+02 0.  0.
      -15    1    5    5    0    0 -0.17307729610E+00 -0.24724161381E+02 -0.38927624285E+02  0.46150100466E+02  0.17769999504E+01 0.  1.
       16    1    5    5    0    0  0.40292858019E+01 -0.42648555388E+02  0.45961773499E+02  0.62830080725E+02  0.00000000000E+00 0. -1.
        5    1    4    4  501    0  0.66668396818E+02 -0.13221557502E+03 -0.99719360890E+02  0.17858240212E+03  0.46999998093E+01 0. -1.
        5    1    3    3  502    0 -0.22458553040E+02  0.19607069326E+03  0.81020687579E+03  0.83390969231E+03  0.46999998093E+01 0. -1.
       -5    1    3    3    0  502 -0.48066052284E+02  0.35175985251E+01  0.19655282627E+03  0.20242979622E+03  0.46999998093E+01 0. -1.
</event>
<event>
10   0  0.1583500E-03  0.1803085E+03  0.7818609E-02  0.1179820E+00
       21   -1    0    0  501  503  0.00000000000E+00  0.00000000000E+00  0.86325342038E+02  0.86325342038E+02  0.00000000000E+00 0.  1.
        2   -1    0    0  503    0  0.00000000000E+00  0.00000000000E+00 -0.77767849097E+03  0.77767849097E+03  0.25500000920E-02 0.  1.
       25    2    1    2    0    0 -0.47365592446E+02 -0.26556639937E+02 -0.66850210526E+03  0.68225310062E+03  0.12500189638E+03 0.  0.
        6    2    1    2  501    0  0.47365592446E+02  0.26556639937E+02 -0.22851043664E+02  0.18175073238E+03  0.17193720962E+03 0.  0.
       24    2    4    4    0    0 -0.47567719831E+02  0.20284177847E+02 -0.37438645242E+01  0.84596978707E+02  0.66846813267E+02 0.  0.
      -13    1    5    5    0    0 -0.21641118672E+02 -0.86329431130E+01  0.26562827406E+02  0.35333563194E+02  0.10565999895E+00 0.  1.
       14    1    5    5    0    0 -0.25926601159E+02  0.28917120960E+02 -0.30306691930E+02  0.49263415513E+02  0.00000000000E+00 0. -1.
        5    1    4    4  501    0  0.94933312277E+02  0.62724620902E+01 -0.19107179140E+02  0.97153753676E+02  0.46999998093E+01 0. -1.
        5    1    3    3  502    0  0.26493941289E+02 -0.49207431696E+02 -0.35107191650E+03  0.35552338997E+03  0.46999998093E+01 0. -1.
       -5    1    3    3    0  502 -0.73859533735E+02  0.22650791759E+02 -0.31743018876E+03  0.32672971066E+03  0.46999998093E+01 0. -1.
</event>
<event>
10   0  0.1583500E-03  0.2182447E+03  0.7818609E-02  0.1141993E+00
       -2   -1    0    0    0  501  0.00000000000E+00  0.00000000000E+00  0.22972845749E+03  0.22972845750E+03  0.00000000000E+00 0.  1.
       21   -1    0    0  501  503  0.00000000000E+00  0.00000000000E+00 -0.45331447800E+03  0.45331447800E+03  0.25500000920E-02 0.  1.
       25    2    1    2    0    0 -0.11900226918E+03 -0.67112877276E+02  0.15802146764E+03  0.24343512939E+03  0.12499679844E+03 0.  0.
       -6    2    1    2    0  503  0.11900226918E+03  0.67112877276E+02 -0.38160748815E+03  0.43960780611E+03  0.17019127422E+03 0.  0.
      -24    2    4    4    0    0  0.26870750920E+02  0.51880730896E+02 -0.29696774564E+03  0.31348797837E+03  0.81677555903E+02 0.  0.
       13    1    5    5    0    0 -0.19982567115E+02 -0.55074807807E+01 -0.30236383088E+02  0.36659041986E+02  0.10565999895E+00 0. -1.
      -14    1    5    5    0    0  0.46853318035E+02  0.57388211677E+02 -0.26673136255E+03  0.27682893638E+03  0.00000000000E+00 0.  1.
       -5    1    4    4    0  503  0.92131518260E+02  0.15232146380E+02 -0.84639742508E+02  0.12611982774E+03  0.46999998093E+01 0.  1.
        5    1    3    3  502    0 -0.10683815776E+03 -0.10119952996E+03  0.11372666348E+03  0.18604187916E+03  0.46999998093E+01 0. -1.
       -5    1    3    3    0  502 -0.12164111423E+02  0.34086652685E+02  0.44294804159E+02  0.57393250228E+02  0.46999998093E+01 0. -1.
</event>
<event>
10   0  0.1583500E-03  0.1997716E+03  0.7818609E-02  0.1159355E+00
        2   -1    0    0  503    0  0.00000000000E+00  0.00000000000E+00  0.10667750588E+04  0.10667750588E+04  0.00000000000E+00 0.  1.
       21   -1    0    0  501  503  0.00000000000E+00  0.00000000000E+00 -0.39157623912E+02  0.39157623912E+02  0.25500000920E-02 0.  1.
       25    2    1    2    0    0 -0.59736328754E+01  0.99835604743E+02  0.73093552603E+03  0.74826127955E+03  0.12500146799E+03 0.  0.
        6    2    1    2  501    0  0.59736328754E+01 -0.99835604743E+02  0.29668190888E+03  0.35767140318E+03  0.17293306606E+03 0.  0.
       24    2    4    4    0    0 -0.28226095981E+02 -0.70879963626E+02  0.29238233882E+03  0.31240964331E+03  0.79320056982E+02 0.  0.
      -11    1    5    5    0    0 -0.43667690771E+02 -0.79308757914E+02  0.21958918821E+03  0.23752085777E+03  0.51099999109E-03 0.  1.
       12    1    5    5    0    0  0.15441594790E+02  0.84287942878E+01  0.72793150608E+02  0.74888785530E+02  0.00000000000E+00 0. -1.
        5    1    4    4  501    0  0.34199728856E+02 -0.28955641117E+02  0.42995700592E+01  0.45261759877E+02  0.46999998093E+01 0. -1.
        5    1    3    3  502    0 -0.45535295045E+02  0.10923802344E+03  0.51078900979E+03  0.52434140727E+03  0.46999998093E+01 0.  1.
       -5    1    3    3    0  502  0.39561662170E+02 -0.94024186927E+01  0.22014651624E+03  0.22391987228E+03  0.46999998093E+01 0.  1.
</event>
<event>
10   0  0.1583500E-03  0.2568039E+03  0.7818609E-02  0.1113857E+00
       21   -1    0    0  501  503  0.00000000000E+00  0.00000000000E+00  0.57740065549E+02  0.57740065549E+02  0.00000000000E+00 0.  1.
        2   -1    0    0  503    0  0.00000000000E+00  0.00000000000E+00 -0.11008489268E+04  0.11008489268E+04  0.25500000920E-02 0.  1.
       25    2    1    2    0    0  0.17312627229E+03 -0.78338110791E+02 -0.65357009883E+03  0.69201780775E+03  0.12500082563E+03 0.  0.
        6    2    1    2  501    0 -0.17312627229E+03  0.78338110791E+02 -0.38953876239E+03  0.46657118456E+03  0.17273869601E+03 0.  0.
       24    2    4    4    0    0 -0.17875478746E+03  0.25575335917E+02 -0.34150370785E+03  0.39484220118E+03  0.81659105466E+02 0.  0.
      -15    1    5    5    0    0 -0.60761575017E+02 -0.28906695395E+02 -0.99129359357E+02  0.11982217513E+03  0.17769999504E+01 0.  1.
       16    1    5    5    0    0 -0.11799321244E+03  0.54482031312E+02 -0.24237434850E+03  0.27502002605E+03  0.00000000000E+00 0. -1.
        5    1    4    4  501    0  0.56285151621E+01  0.52762774873E+02 -0.48035054533E+02  0.71728983386E+02  0.46999998093E+01 0. -1.
        5    1    3    3  502    0 -0.15679345708E+02  0.64343301529E+01 -0.88250704541E+02  0.89986217481E+02  0.46999998093E+01 0.  1.
       -5    1    3    3    0  502  0.18880561800E+03 -0.84772440944E+02 -0.56531939429E+03  0.60203159027E+03  0.46999998093E+01 0.  1.
</event>
<event>
10   0  0.1583500E-03  0.2041342E+03  0.7818609E-02  0.1155840E+00
        2   -1    0    0  503    0  0.00000000000E+00  0.00000000000E+00  0.38043224627E+03  0.38043224627E+03  0.00000000000E+00 0.  1.
       21   -1    0    0  501  503  0.00000000000E+00  0.00000000000E+00 -0.92910917634E+02  0.92910917634E+02  0.25500000920E-02 0.  1.
       25    2    1    2    0    0 -0.91298592751E+02  0.50724285400E+02  0.17948710492E+03  0.24238391162E+03  0.12500381439E+03 0.  0.
        6    2    1    2  501    0  0.91298592751E+02 -0.50724285400E+02  0.10803422372E+03  0.23095925229E+03  0.17539212228E+03 0.  0.
       24    2    4    4    0    0  0.80585241682E+02 -0.40270546774E+01  0.13426240216E+01  0.11390971281E+03  0.80395408375E+02 0.  0.
      -13    1    5    5    0    0  0.35226297735E+02 -0.40615436047E+02 -0.96025801222E+01  0.54614342497E+02  0.10565999895E+00 0.  1.
       14    1    5    5    0    0  0.45358943947E+02  0.36588381369E+02  0.10945204144E+02  0.59295370316E+02  0.00000000000E+00 0. -1.
        5    1    4    4  501    0  0.10713351069E+02 -0.46697230723E+02  0.10669159969E+03  0.11704953948E+03  0.46999998093E+01 0. -1.
        5    1    3    3  502    0 -0.14123967192E+02  0.70384133901E+02  0.12978496446E+03  0.14839016056E+03  0.46999998093E+01 0. -1.
       -5    1    3    3    0  502 -0.77174625559E+02 -0.19659848500E+02  0.49702140461E+02  0.93993751057E+02  0.46999998093E+01 0. -1.
</event>
<event>
10   0  0.1583500E-03  0.1780950E+03  0.7818609E-02  0.1182143E+00
        2   -1    0    0  503    0  0.00000000000E+00  0.00000000000E+00  0.23251622271E+03  0.23251622272E+03  0.00000000000E+00 0. -1.
       21   -1    0    0  501  503  0.00000000000E+00  0.00000000000E+00 -0.14529519101E+03  0.14529519101E+03  0.25500000920E-02 0. -1.
       25    2    1    2    0    0  0.69609291827E+01 -0.48461775290E+02  0.13809277670E+03  0.19259326957E+03  0.12500221720E+03 0.  0.
        6    2    1    2  501    0 -0.69609291827E+01  0.48461775290E+02 -0.50871745001E+02  0.18521814416E+03  0.17123325696E+03 0.  0.
       24    2    4    4    0    0  0.42325818518E+02 -0.12889395680E+02 -0.42190437681E+01  0.93611844112E+02  0.82387897130E+02 0.  0.
      -15    1    5    5    0    0  0.38325877325E+02  0.20504146686E+02 -0.28609141772E+02  0.52066626795E+02  0.17769999504E+01 0.  1.
       16    1    5    5    0    0  0.39999411925E+01 -0.33393542366E+02  0.24390098004E+02  0.41545217317E+02  0.00000000000E+00 0. -1.
        5    1    4    4  501    0 -0.49286747700E+02  0.61351170970E+02 -0.46652701233E+02  0.91606300050E+02  0.46999998093E+01 0. -1.
        5    1    3    3  502    0 -0.92890739315E+01 -0.27741269575E+02  0.15704191561E+03  0.15981275978E+03  0.46999998093E+01 0. -1.
       -5    1    3    3    0  502  0.16250003114E+02 -0.20720505715E+02 -0.18949138908E+02  0.32780509786E+02  0.46999998093E+01 0. -1.
</event>
<event>
10   0  0.1583500E-03  0.1724334E+03  0.7818609E-02  0.1188658E+00
       -2   -1    0    0    0  501  0.00000000000E+00  0.00000000000E+00  0.74825361623E+03  0.74825361623E+03  0.00000000000E+00 0. -1.
       21   -1    0    0  501  503  0.00000000000E+00  0.00000000000E+00 -0.69598283282E+02  0.69598283282E+02  0.25500000920E-02 0. -1.
       25    2    1    2    0    0 -0.95123037361E+01 -0.25549006314E+02  0.62397602119E+03  0.63695661229E+03  0.12499766105E+03 0.  0.
       -6    2    1    2    0  503  0.95123037361E+01  0.25549006314E+02  0.54679311755E+02  0.18089528723E+03  0.17026462393E+03 0.  0.
      -24    2    4    4    0    0  0.68971891188E+02  0.15720447676E+01  0.31974238999E+02  0.11271942968E+03  0.83208922417E+02 0.  0.
       13    1    5    5    0    0  0.37175656423E+02  0.37072398101E+02 -0.45169565914E+01  0.52695409594E+02  0.10565999895E+00 0. -1.
      -14    1    5    5    0    0  0.31796234765E+02 -0.35500353333E+02  0.36491195591E+02  0.60024020089E+02  0.00000000000E+00 0.  1.
       -5    1    4    4    0  503 -0.59459587452E+02  0.23976961546E+02  0.22705072756E+02  0.68175857545E+02  0.46999998093E+01 0.  1.
        5    1    3    3  502    0  0.39836379166E+02 -0.45653486346E+02  0.18483365664E+03  0.19456810773E+03  0.46999998093E+01 0. -1.
       -5    1    3    3    0  502 -0.49348682902E+02  0.20104480032E+02  0.43914236455E+03  0.44238850455E+03  0.46999998093E+01 0. -1.
</event>
<event>
10   0  0.1583500E-03  0.2220112E+03  0.7818609E-02  0.1139172E+00
       21   -1    0    0  501  503  0.00000000000E+00  0.00000000000E+00  0.24396814040E+03  0.24396814040E+03  0.00000000000E+00 0. -1.
       -4   -1    0    0    0  501  0.00000000000E+00  0.00000000000E+00 -0.13883877081E+04  0.13883882889E+04  0.12699999809E+01 0.  1.
       25    2    1    2    0    0 -0.13055652709E+03 -0.52735977702E+02 -0.13298377901E+04  0.13431006618E+04  0.12499899940E+03 0.  0.
       -6    2    1    2    0  503  0.13055652709E+03  0.52735977702E+02  0.18541822237E+03  0.28925576751E+03  0.17164758006E+03 0.  0.
      -24    2    4    4    0    0  0.13218097879E+03  0.17160702117E+01  0.86515286195E+02  0.17785760511E+03  0.81692575546E+02 0.  0.
       11    1    5    5    0    0  0.28360145241E+02  0.66724067583E+01  0.65678624112E+02  0.71850542904E+02  0.51099999109E-03 0. -1.
      -12    1    5    5    0    0  0.10382083355E+03 -0.49563365465E+01  0.20836662083E+02  0.10600706221E+03  0.00000000000E+00 0.  1.
       -5    1    4    4    0  503 -0.16244517021E+01  0.51019907491E+02  0.98902936172E+02  0.11139816240E+03  0.46999998093E+01 0.  1.
        5    1    3    3  502    0 -0.27251739038E+02 -0.76650498405E+02 -0.63371045094E+03  0.63892799424E+03  0.46999998093E+01 0.  1.
       -5    1    3    3    0  502 -0.10330478805E+03  0.23914520702E+02 -0.69612733911E+03  0.70417266760E+03  0.46999998093E+01 0.  1.
</event>
<event>
10   0  0.1583500E-03  0.2571345E+03  0.7818609E-02  0.1113294E+00
       21   -1    0    0  501  503  0.00000000000E+00  0.00000000000E+00  0.85302099918E+02  0.85302099918E+02  0.00000000000E+00 0.  1.
        2   -1    0    0  503    0  0.00000000000E+00  0.00000000000E+00 -0.13289571364E+04  0.13289571364E+04  0.25500000920E-02 0. -1.
       25    2    1    2    0    0 -0.13843399746E+03  0.13429946336E+03 -0.10915968534E+04  0.11155288482E+04  0.12498241221E+03 0.  0.
        6    2    1    2  501    0  0.13843399746E+03 -0.13429946336E+03 -0.15205818312E+03  0.29873038813E+03  0.17005245140E+03 0.  0.
       24    2    4    4    0    0  0.13821437904E+03 -0.99362599917E+02 -0.17503108331E+03  0.25665335400E+03  0.79113356381E+02 0.  0.
      -13    1    5    5    0    0 -0.23618165399E+01 -0.13575162262E+02  0.30321963025E+01  0.14109166746E+02  0.10565999895E+00 0.  1.
       14    1    5    5    0    0  0.14057619558E+03 -0.85787437655E+02 -0.17806327961E+03  0.24254418725E+03  0.00000000000E+00 0. -1.
        5    1    4    4  501    0  0.21961841327E+00 -0.34936863446E+02  0.22972900193E+02  0.42077034130E+02  0.46999998093E+01 0. -1.
        5    1    3    3  502    0  0.48365540856E+01  0.44810022397E+02 -0.44179678114E+03  0.44411464306E+03  0.46999998093E+01 0.  1.
       -5    1    3    3    0  502 -0.14327055154E+03  0.89489440966E+02 -0.64980007226E+03  0.67141420516E+03  0.46999998093E+01 0.  1.
</event>
<event>
10   0  0.1583500E-03  0.1902647E+03  0.7818609E-02  0.1169661E+00
       21   -1    0    0  501  503  0.00000000000E+00  0.00000000000E+00  0.82756995730E+02  0.82756995730E+02  0.00000000000E+00 0.  1.
        2   -1    0    0  503    0  0.00000000000E+00  0.00000000000E+00 -0.42864282080E+03  0.42864282081E+03  0.25500000920E-02 0.  1.
       25    2    1    2    0    0 -0.74873705589E+02  0.10099845738E+02 -0.26918606556E+03  0.30625711552E+03  0.12499681693E+03 0.  0.
        6    2    1    2  501    0  0.74873705589E+02 -0.10099845738E+02 -0.76699759508E+02  0.20514270102E+03  0.17462129309E+03 0.  0.
       24    2    4    4    0    0  0.51712210269E+02 -0.39129452035E+02  0.18258057457E+02  0.10307287243E+03  0.78008933211E+02 0.  0.
      -13    1    5    5    0    0 -0.16184441232E+02 -0.22320407782E+01  0.19941718693E+02  0.25779865254E+02  0.10565999895E+00 0.  1.
       14    1    5    5    0    0  0.67896651502E+02 -0.36897411257E+02 -0.16836612367E+01  0.77293007173E+02  0.00000000000E+00 0. -1.
        5    1    4    4  501    0  0.23161495319E+02  0.29029606297E+02 -0.94957816965E+02  0.10206982859E+03  0.46999998093E+01 0. -1.
        5    1    3    3  502    0  0.98043982297E+01  0.50360667554E+02 -0.10959724653E+03  0.12110313583E+03  0.46999998093E+01 0. -1.
       -5    1    3    3    0  502 -0.84678103818E+02 -0.40260821816E+02 -0.15958881903E+03  0.18515397969E+03  0.46999998093E+01 0. -1.
</event>
<event>
10   0  0.1583500E-03  0.1830381E+03  0.7818609E-02  0.1177049E+00
       21   -1    0    0  501  503  0.00000000000E+00  0.00000000000E+00  0.52502818325E+02  0.52502818325E+02  0.00000000000E+00 0. -1.
        2   -1    0    0  503    0  0.00000000000E+00  0.00000000000E+00 -0.52242259452E+03  0.52242259453E+03  0.25500000920E-02 0. -1.
       25    2    1    2    0    0 -0.59457919885E+02  0.83386391696E+01 -0.27219120361E+03  0.30548243306E+03  0.12500675361E+03 0.  0.
        6    2    1    2  501    0  0.59457919885E+02 -0.83386391696E+01 -0.19772857259E+03  0.26944297979E+03  0.17291082615E+03 0.  0.
       24    2    4    4    0    0  0.81744104038E+02 -0.17624027617E+02 -0.21130125949E+03  0.24135027129E+03  0.81295918063E+02 0.  0.
      -13    1    5    5    0    0  0.66672280935E+02  0.21643461072E+02 -0.16218911870E+03  0.17668886168E+03  0.10565999895E+00 0.  1.
       14    1    5    5    0    0  0.15071823104E+02 -0.39267488689E+02 -0.49112140789E+02  0.64661409608E+02  0.00000000000E+00 0. -1.
        5    1    4    4  501    0 -0.22286184153E+02  0.92853884473E+01  0.13572686905E+02  0.28092708498E+02  0.46999998093E+01 0. -1.
        5    1    3    3  502    0 -0.96026541154E+02 -0.11293053685E+02 -0.19551157578E+03  0.21816391987E+03  0.46999998093E+01 0.  1.
       -5    1    3    3    0  502  0.36568621269E+02  0.19631692854E+02 -0.76679627824E+02  0.87318513199E+02  0.46999998093E+01 0.  1.
</event>
<event>
10   0  0.1583500E-03  0.3065842E+03  0.7818609E-02  0.1084969E+00
       -2   -1    0    0    0  501  0.00000000000E+00  0.00000000000E+00  0.61201148001E+03  0.61201148002E+03  0.00000000000E+00 0.  1.
       21   -1    0    0  501  503  0.00000000000E+00  0.00000000000E+00 -0.19726863244E+03  0.19726863244E+03  0.25500000920E-02 0. -1.
       25    2    1    2    0    0 -0.25229688618E+03  0.29685338784E+02  0.41538183719E+03  0.50269523893E+03  0.12500197782E+03 0.  0.
       -6    2    1    2    0  503  0.25229688618E+03 -0.29685338784E+02 -0.63898962506E+00  0.30658487353E+03  0.17163606337E+03 0.  0.
      -24    2    4    4    0    0  0.55829560254E+02 -0.48018993879E+02  0.15677852303E+02  0.10853472231E+03  0.78174339289E+02 0.  0.
       11    1    5    5    0    0  0.24058744758E+02 -0.49163846951E+02 -0.22215627042E+02  0.59071491699E+02  0.51099999109E-03 0. -1.
      -12    1    5    5    0    0  0.31770815496E+02  0.11448530724E+01  0.37893479346E+02  0.49463230614E+02  0.00000000000E+00 0.  1.
       -5    1    4    4    0  503  0.19646732593E+03  0.18333655094E+02 -0.16316841928E+02  0.19805015121E+03  0.46999998093E+01 0.  1.
        5    1    3    3  502    0 -0.18186505420E+03  0.17537459596E+02  0.17948034915E+03  0.25615961071E+03  0.46999998093E+01 0. -1.
       -5    1    3    3    0  502 -0.70431831980E+02  0.12147879188E+02  0.23590148804E+03  0.24653562822E+03  0.46999998093E+01 0. -1.
</event>
<event>
10   0  0.1583500E-03  0.2731413E+03  0.7818609E-02  0.1103797E+00
       -2   -1    0    0    0  501  0.00000000000E+00  0.00000000000E+00  0.28497538313E+04  0.28497538313E+04  0.00000000000E+00 0.  1.
       21   -1    0    0  501  503  0.00000000000E+00  0.00000000000E+00 -0.28870572076E+02  0.28870572076E+02  0.25500000920E-02 0. -1.
       25    2    1    2    0    0 -0.17178099103E+03  0.12077357698E+03  0.19669032622E+04  0.19820264010E+04  0.12500098322E+03 0.  0.
       -6    2    1    2    0  503  0.17178099103E+03 -0.12077357698E+03  0.85397999698E+03  0.89659800229E+03  0.17467448780E+03 0.  0.
      -24    2    4    4    0    0  0.16999076134E+03 -0.47751737526E+02  0.69761213369E+03  0.72394693039E+03  0.79116253510E+02 0.  0.
       15    1    5    5    0    0  0.54841657080E+02  0.19755071545E+02  0.25846015161E+03  0.26495787949E+03  0.17769999504E+01 0. -1.
      -16    1    5    5    0    0  0.11514910426E+03 -0.67506809070E+02  0.43915198208E+03  0.45898905090E+03  0.00000000000E+00 0.  1.
       -5    1    4    4    0  503  0.17902296900E+01 -0.73021839459E+02  0.15636786329E+03  0.17265107190E+03  0.46999998093E+01 0. -1.
        5    1    3    3  502    0 -0.18483736298E+03  0.80626199555E+02  0.16532334324E+04  0.16654934125E+04  0.46999998093E+01 0. -1.
       -5    1    3    3    0  502  0.13056371947E+02  0.40147377430E+02  0.31366982976E+03  0.31653298859E+03  0.46999998093E+01 0. -1.
</event>
<event>
10   0  0.1583500E-03  0.1840866E+03  0.7818609E-02  0.1180135E+00
       -2   -1    0    0    0  501  0.00000000000E+00  0.00000000000E+00  0.95773206416E+02  0.95773206450E+02  0.00000000000E+00 0.  1.
       21   -1    0    0  501  503  0.00000000000E+00  0.00000000000E+00 -0.39298163988E+03  0.39298163988E+03  0.25500000920E-02 0.  1.
       25    2    1    2    0    0 -0.73353771295E+01  0.22258630245E+02  0.13219053525E+02  0.12784888237E+03  0.12498535502E+03 0.  0.
       -6    2    1    2    0  503  0.73353771295E+01 -0.22258630245E+02 -0.31042748699E+03  0.36090596396E+03  0.18258870656E+03 0.  0.
      -24    2    4    4    0    0  0.75866751870E+02 -0.17504769781E+02 -0.22455001235E+03  0.25083244688E+03  0.80199921183E+02 0.  0.
       15    1    5    5    0    0  0.28812152981E+02 -0.37443912570E+02 -0.49400186459E+02  0.68379257813E+02  0.17769999504E+01 0. -1.
      -16    1    5    5    0    0  0.47054598889E+02  0.19939142789E+02 -0.17514982589E+03  0.18245318907E+03  0.00000000000E+00 0.  1.
       -5    1    4    4    0  503 -0.68531374741E+02 -0.47538604633E+01 -0.85877474635E+02  0.11007351707E+03  0.46999998093E+01 0.  1.
        5    1    3    3  502    0 -0.47018987184E+01 -0.60450707770E+01 -0.53985710741E+02  0.54728399343E+02  0.46999998093E+01 0. -1.
       -5    1    3    3    0  502 -0.26334784110E+01  0.28303701022E+02  0.67204764266E+02  0.73120483028E+02  0.46999998093E+01 0. -1.
</event>
<event>
10   0  0.1583500E-03  0.1675328E+03  0.7818609E-02  0.1187594E+00
       21   -1    0    0  501  503  0.00000000000E+00  0.00000000000E+00  0.86979010583E+03  0.86979010583E+03  0.00000000000E+00 0.  1.
        2   -1    0    0  503    0  0.00000000000E+00  0.00000000000E+00 -0.33463410730E+03  0.33463410731E+03  0.25500000920E-02 0.  1.
       25    2    1    2    0    0 -0.63388651679E+02  0.27417179051E+02 -0.31079651500E+03  0.34204210881E+03  0.12501402959E+03 0.  0.
        6    2    1    2  501    0  0.63388651679E+02 -0.27417179051E+02  0.84595251352E+03  0.86238210433E+03  0.15263491038E+03 0.  0.
       24    2    4    4    0    0  0.50238546299E+02 -0.21675157596E+02  0.84006714685E+03  0.84617643801E+03  0.85487010883E+02 0.  0.
      -15    1    5    5    0    0  0.44184580773E+02 -0.33597492279E+02  0.25592763840E+03  0.26188391033E+03  0.17769999504E+01 0.  1.
       16    1    5    5    0    0  0.60539655257E+01  0.11922334683E+02  0.58413950845E+03  0.58429252768E+03  0.00000000000E+00 0. -1.
        5    1    4    4  501    0  0.13150105381E+02 -0.57420214554E+01  0.58853666696E+01  0.16205666323E+02  0.46999998093E+01 0. -1.
        5    1    3    3  502    0 -0.26681956122E+02  0.71948482455E+02 -0.23096048013E+03  0.24342009837E+03  0.46999998093E+01 0. -1.
       -5    1    3    3    0  502 -0.36706695557E+02 -0.44531303403E+02 -0.79836034871E+02  0.98622010443E+02  0.46999998093E+01 0. -1.
</event>
<event>
10   0  0.1583500E-03  0.3482545E+03  0.7818609E-02  0.1065577E+00
        2   -1    0    0  503    0  0.00000000000E+00  0.00000000000E+00  0.55154499209E+03  0.55154499209E+03  0.00000000000E+00 0. -1.
       21   -1    0    0  501  503  0.00000000000E+00  0.00000000000E+00 -0.20683316704E+03  0.20683316704E+03  0.25500000920E-02 0.  1.
       25    2    1    2    0    0  0.29529128752E+03  0.65288210877E+02  0.16463269771E+03  0.36631990547E+03  0.12500741187E+03 0.  0.
        6    2    1    2  501    0 -0.29529128752E+03 -0.65288210877E+02  0.18007912733E+03  0.39205825366E+03  0.17268956887E+03 0.  0.
       24    2    4    4    0    0 -0.10283528913E+03 -0.71415238047E+02  0.44686814569E+02  0.15662244472E+03  0.82815734475E+02 0.  0.
      -11    1    5    5    0    0 -0.62395814835E+01  0.12159561584E+02 -0.10741003304E+02  0.17382648453E+02  0.51099999109E-03 0.  1.
       12    1    5    5    0    0 -0.96595707649E+02 -0.83574799630E+02  0.55427817873E+02  0.13923979626E+03  0.00000000000E+00 0. -1.
        5    1    4    4  501    0 -0.19245599839E+03  0.61270271694E+01  0.13539231276E+03  0.23543580894E+03  0.46999998093E+01 0. -1.
        5    1    3    3  502    0  0.28741431628E+03  0.28952460403E+02  0.15387974343E+03  0.32733209375E+03  0.46999998093E+01 0. -1.
       -5    1    3    3    0  502  0.78769712456E+01  0.36335750474E+02  0.10752954285E+02  0.38987811718E+02  0.46999998093E+01 0. -1.
</event>
<event>
10   0  0.1583500E-03  0.1780424E+03  0.7818609E-02  0.1182247E+00
        2   -1    0    0  503    0  0.00000000000E+00  0.00000000000E+00  0.26084155718E+03  0.26084155719E+03  0.00000000000E+00 0. -1.
       21   -1    0    0  501  503  0.00000000000E+00  0.00000000000E+00 -0.10612334096E+03  0.10612334096E+03  0.25500000920E-02 0. -1.
       25    2    1    2    0    0 -0.48429330603E+02 -0.92187124618E+00  0.13084842807E+03  0.18732951424E+03  0.12499914348E+03 0.  0.
        6    2    1    2  501    0  0.48429330603E+02  0.92187124618E+00  0.23869788151E+02  0.17963538390E+03  0.17132674763E+03 0.  0.
       24    2    4    4    0    0  0.92434838138E+02 -0.12360385071E+00  0.45300043582E+02  0.13045283051E+03  0.80135088824E+02 0.  0.
      -15    1    5    5    0    0  0.21291931258E+02 -0.20665884209E+02  0.47882154869E+02  0.56358527221E+02  0.17769999504E+01 0.  1.
       16    1    5    5    0    0  0.71142906880E+02  0.20542280358E+02 -0.25821112866E+01  0.74094303293E+02  0.00000000000E+00 0. -1.
        5    1    4    4  501    0 -0.44005507535E+02  0.10454750969E+01 -0.21430255431E+02  0.49182553387E+02  0.46999998093E+01 0. -1.
        5    1    3    3  502    0 -0.57069374259E+02 -0.37580540758E+02  0.21821999982E+02  0.71885326760E+02  0.46999998093E+01 0.  1.
       -5    1    3    3    0  502  0.86400436557E+01  0.36658669512E+02  0.10902642808E+03  0.11544418748E+03  0.46999998093E+01 0.  1.
</event>
<event>
10   0  0.1583500E-03  0.1722981E+03  0.7818609E-02  0.1187176E+00
       21   -1    0    0  501  503  0.00000000000E+00  0.00000000000E+00  0.27118288015E+03  0.27118288015E+03  0.00000000000E+00 0.  1.
       -2   -1    0    0    0  501  0.00000000000E+00  0.00000000000E+00 -0.93753471961E+02  0.93753471996E+02  0.25500000920E-02 0.  1.
       25    2    1    2    0    0 -0.10858862335E+01 -0.43987783050E+02  0.24931889050E+02  0.13484479026E+03  0.12500165663E+03 0.  0.
       -6    2    1    2    0  503  0.10858862335E+01  0.43987783050E+02  0.15249751914E+03  0.23009156189E+03  0.16658490118E+03 0.  0.
      -24    2    4    4    0    0  0.50923375155E+02  0.68381831079E+02  0.10729711122E+03  0.15836979563E+03  0.79366599604E+02 0.  0.
       11    1    5    5    0    0  0.43360462739E+02 -0.22164108281E+01  0.55586772975E+02  0.70533194568E+02  0.51099999109E-03 0. -1.
      -12    1    5    5    0    0  0.75629124153E+01  0.70598241907E+02  0.51710338245E+02  0.87836601061E+02  0.00000000000E+00 0.  1.
       -5    1    4    4    0  503 -0.49837488921E+02 -0.24394048029E+02  0.45200407922E+02  0.71721766262E+02  0.46999998093E+01 0.  1.
        5    1    3    3  502    0 -0.45534411034E+02  0.21629639194E+02  0.22526359515E+02  0.55414355099E+02  0.46999998093E+01 0.  1.
       -5    1    3    3    0  502  0.44448524800E+02 -0.65617422244E+02  0.24055295347E+01  0.79430435158E+02  0.46999998093E+01 0.  1.
</event>
<event>
10   0  0.1583500E-03  0.2565457E+03  0.7818609E-02  0.1113972E+00
       21   -1    0    0  501  503  0.00000000000E+00  0.00000000000E+00  0.89031304907E+02  0.89031304907E+02  0.00000000000E+00 0. -1.
        2   -1    0    0  503    0  0.00000000000E+00  0.00000000000E+00 -0.88957465628E+03  0.88957465629E+03  0.25500000920E-02 0.  1.
       25    2    1    2    0    0  0.71305813159E+01  0.18991841072E+03 -0.63189468854E+03  0.67159118436E+03  0.12499589430E+03 0.  0.
        6    2    1    2  501    0 -0.71305813159E+01 -0.18991841072E+03 -0.16864866284E+03  0.30701477683E+03  0.17232484961E+03 0.  0.
       24    2    4    4    0    0  0.34922619966E+02 -0.18677658269E+03 -0.16553340818E+03  0.26446906458E+03  0.80234005681E+02 0.  0.
      -11    1    5    5    0    0  0.32106906507E+02 -0.23919244357E+02 -0.53307656647E+02  0.66668507959E+02  0.51099999109E-03 0.  1.
       12    1    5    5    0    0  0.28157134595E+01 -0.16285733833E+03 -0.11222575154E+03  0.19780055662E+03  0.00000000000E+00 0. -1.
        5    1    4    4  501    0 -0.42053201282E+02 -0.31418280365E+01 -0.31152546559E+01  0.42545712255E+02  0.46999998093E+01 0. -1.
        5    1    3    3  502    0  0.83630914784E+01  0.19551789890E+03 -0.63428254233E+03  0.66380239800E+03  0.46999998093E+01 0. -1.
       -5    1    3    3    0  502 -0.12325101625E+01 -0.55994881768E+01  0.23878537891E+01  0.77887863668E+01  0.46999998093E+01 0. -1.
</event>
<event>
10   0  0.1583500E-03  0.1956664E+03  0.7818609E-02  0.1163089E+00
        2   -1    0    0  503    0  0.00000000000E+00  0.00000000000E+00  0.10202294678E+04  0.10202294678E+04  0.00000000000E+00 0.  1.
       21   -1    0    0  501  503  0.00000000000E+00  0.00000000000E+00 -0.30674552303E+02  0.30674552303E+02  0.25500000920E-02 0.  1.
       25    2    1    2    0    0  0.32343703917E+02  0.87948459148E+02  0.49422149326E+03  0.51832489736E+03  0.12499907271E+03 0.  0.
        6    2    1    2  501    0 -0.32343703917E+02 -0.87948459148E+02  0.49533342224E+03  0.53257912274E+03  0.17176808826E+03 0.  0.
       24    2    4    4    0    0 -0.70071673242E+02 -0.14276723134E+02  0.22202839957E+03  0.24697686475E+03  0.81160934519E+02 0.  0.
      -11    1    5    5    0    0 -0.79972653770E+02 -0.25938838455E+02  0.21351052786E+03  0.22946719635E+03  0.51099999109E-03 0.  1.
       12    1    5    5    0    0  0.99009805282E+01  0.11662115321E+02  0.85178717098E+01  0.17509668405E+02  0.00000000000E+00 0. -1.
        5    1    4    4  501    0  0.37727969325E+02 -0.73671736014E+02  0.27330502266E+03  0.28560225799E+03  0.46999998093E+01 0. -1.
        5    1    3    3  502    0 -0.64354788679E+01  0.53432401550E+02  0.59016591188E+02  0.80009280445E+02  0.46999998093E+01 0.  1.
       -5    1    3    3    0  502  0.38779182785E+02  0.34516057598E+02  0.43520490207E+03  0.43831561692E+03  0.46999998093E+01 0.  1.
</event>
<event>
10   0  0.1583500E-03  0.1901188E+03  0.7818609E-02  0.1168353E+00
       -2   -1    0    0    0  501  0.00000000000E+00  0.00000000000E+00  0.40866474029E+03  0.40866474030E+03  0.00000000000E+00 0. -1.
       21   -1    0    0  501  503  0.00000000000E+00  0.00000000000E+00 -0.57840269191E+03  0.57840269191E+03  0.25500000920E-02 0.  1.
       25    2    1    2    0    0  0.69783189825E+02  0.47571635066E+02  0.37815230219E+03  0.40712875379E+03  0.12498761724E+03 0.  0.
       -6    2    1    2    0  503 -0.69783189825E+02 -0.47571635066E+02 -0.54789025381E+03  0.57993867842E+03  0.17033022768E+03 0.  0.
      -24    2    4    4    0    0 -0.23202616380E+02  0.80768485033E+01 -0.45082957191E+03  0.45865648882E+03  0.80714775189E+02 0.  0.
       11    1    5    5    0    0 -0.84258615528E+01  0.89023928302E+01 -0.61195014154E+01  0.13700220394E+02  0.51099999109E-03 0. -1.
      -12    1    5    5    0    0 -0.14776754827E+02 -0.82554432686E+00 -0.44471007050E+03  0.44495626842E+03  0.00000000000E+00 0.  1.
       -5    1    4    4    0  503 -0.46580573445E+02 -0.55648483569E+02 -0.97060681895E+02  0.12128218960E+03  0.46999998093E+01 0.  1.
        5    1    3    3  502    0  0.23857104021E+02 -0.41227840236E+02  0.87619404281E+02  0.99840604103E+02  0.46999998093E+01 0. -1.
       -5    1    3    3    0  502  0.45926085805E+02  0.88799475301E+02  0.29053289791E+03  0.30728814968E+03  0.46999998093E+01 0. -1.
</event>
<event>
10   0  0.1583500E-03  0.2245964E+03  0.7818609E-02  0.1139256E+00
       21   -1    0    0  501  503  0.00000000000E+00  0.00000000000E+00  0.19796920616E+03  0.19796920616E+03  0.00000000000E+00 0.  1.
        2   -1    0    0  503    0  0.00000000000E+00  0.00000000000E+00 -0.24732988474E+03  0.24732988476E+03  0.25500000920E-02 0.  1.
       25    2    1    2    0    0 -0.41235712905E+02  0.12495363705E+03 -0.11056093520E+03  0.21251376301E+03  0.12499833456E+03 0.  0.
        6    2    1    2  501    0  0.41235712905E+02 -0.12495363705E+03  0.61200256615E+02  0.23278532792E+03  0.18201577418E+03 0.  0.
       24    2    4    4    0    0  0.83392311521E+02 -0.32552876257E+02  0.53541504999E+02  0.13082540502E+03  0.78959650882E+02 0.  0.
      -13    1    5    5    0    0  0.83327875987E+02 -0.37865413804E+02  0.16007247541E+02  0.92916993155E+02  0.10565999895E+00 0.  1.
       14    1    5    5    0    0  0.64435533773E-01  0.53125375469E+01  0.37534257458E+02  0.37908411864E+02  0.00000000000E+00 0. -1.
        5    1    4    4  501    0 -0.42156598616E+02 -0.92400760797E+02  0.76587516166E+01  0.10195992290E+03  0.46999998093E+01 0. -1.
        5    1    3    3  502    0 -0.68385613952E+02  0.49917475321E+02 -0.12045058837E+02  0.85647650164E+02  0.46999998093E+01 0.  1.
       -5    1    3    3    0  502  0.27149901047E+02  0.75036161734E+02 -0.98515876359E+02  0.12686611284E+03  0.46999998093E+01 0.  1.
</event>
<event>
10   0  0.1583500E-03  0.2398469E+03  0.7818609E-02  0.1125519E+00
        2   -1    0    0  503    0  0.00000000000E+00  0.00000000000E+00  0.95656772439E+03  0.95656772439E+03  0.00000000000E+00 0.  1.
       21   -1    0    0  501  503  0.00000000000E+00  0.00000000000E+00 -0.52749198019E+02  0.52749198019E+02  0.25500000920E-02 0.  1.
       25    2    1    2    0    0 -0.11835062063E+03 -0.11767955962E+03  0.38874444829E+03  0.44113750086E+03  0.12499880170E+03 0.  0.
        6    2    1    2  501    0  0.11835062063E+03  0.11767955962E+03  0.51507407808E+03  0.56817942156E+03  0.17225330481E+03 0.  0.
       24    2    4    4    0    0  0.14481041977E+01  0.71333914427E+02  0.16284413509E+03  0.19414447678E+03  0.77995135611E+02 0.  0.
      -11    1    5    5    0    0  0.77626751151E+01  0.82024073303E+02  0.97584667475E+02  0.12771442774E+03  0.51099999109E-03 0.  1.
       12    1    5    5    0    0 -0.63145709173E+01 -0.10690158875E+02  0.65259467617E+02  0.66430049046E+02  0.00000000000E+00 0. -1.
        5    1    4    4  501    0  0.11690251643E+03  0.46345645196E+02  0.35222994299E+03  0.37403494477E+03  0.46999998093E+01 0. -1.
        5    1    3    3  502    0 -0.55311752380E+02  0.68214789023E+01  0.51088160680E+02  0.75749671192E+02  0.46999998093E+01 0. -1.
       -5    1    3    3    0  502 -0.63038868248E+02 -0.12450103853E+03  0.33765628761E+03  0.36538782966E+03  0.46999998093E+01 0. -1.
</event>
<event>
10   0  0.1583500E-03  0.2463624E+03  0.7818609E-02  0.1120052E+00
       21   -1    0    0  501  503  0.00000000000E+00  0.00000000000E+00  0.12354806030E+03  0.12354806030E+03  0.00000000000E+00 0.  1.
        2   -1    0    0  503    0  0.00000000000E+00  0.00000000000E+00 -0.44133215286E+03  0.44133215286E+03  0.25500000920E-02 0. -1.
       25    2    1    2    0    0 -0.40368754967E+02  0.17704544616E+03 -0.14178008108E+03  0.26210665548E+03  0.12499432416E+03 0.  0.
        6    2    1    2  501    0  0.40368754967E+02 -0.17704544616E+03 -0.17600401148E+03  0.30277355768E+03  0.16649230851E+03 0.  0.
       24    2    4    4    0    0  0.73316865860E+02 -0.18160768730E+03 -0.16301102211E+03  0.26675550906E+03  0.78925239181E+02 0.  0.
      -11    1    5    5    0    0  0.69751100762E+02 -0.96077820068E+02 -0.60664173588E+02  0.13332781227E+03  0.51099999109E-03 0.  1.
       12    1    5    5    0    0  0.35657650976E+01 -0.85529867228E+02 -0.10234684853E+03  0.13342769680E+03  0.00000000000E+00 0. -1.
        5    1    4    4  501    0 -0.32948110893E+02  0.45622411393E+01 -0.12992989365E+02  0.36018048621E+02  0.46999998093E+01 0. -1.
        5    1    3    3  502    0 -0.18018841673E+02  0.42615176056E+02 -0.11376270538E+03  0.12290148502E+03  0.46999998093E+01 0. -1.
       -5    1    3    3    0  502 -0.22349913294E+02  0.13443027010E+03 -0.28017375702E+02  0.13920517046E+03  0.46999998093E+01 0. -1.
</event>
<event>
10   0  0.1583500E-03  0.2308397E+03  0.7818609E-02  0.1132384E+00
        2   -1    0    0  503    0  0.00000000000E+00  0.00000000000E+00  0.31119836209E+03  0.31119836210E+03  0.00000000000E+00 0.  1.
       21   -1    0    0  501  503  0.00000000000E+00  0.00000000000E+00 -0.36629022976E+03  0.36629022976E+03  0.25500000920E-02 0. -1.
       25    2    1    2    0    0 -0.79290633727E+02 -0.13080386533E+03  0.23484542759E+03  0.30688015459E+03  0.12500559444E+03 0.  0.
        6    2    1    2  501    0  0.79290633727E+02  0.13080386533E+03 -0.28993729526E+03  0.37060843727E+03  0.17288818009E+03 0.  0.
       24    2    4    4    0    0  0.20839833026E+02  0.10791659865E+03 -0.27306089223E+03  0.30543769187E+03  0.81545336148E+02 0.  0.
      -15    1    5    5    0    0 -0.23801434804E+02  0.28773010210E+02 -0.37464128284E+02  0.52925542531E+02  0.17769999504E+01 0.  1.
       16    1    5    5    0    0  0.44641267830E+02  0.79143588444E+02 -0.23559676394E+03  0.25251214934E+03  0.00000000000E+00 0. -1.
        5    1    4    4  501    0  0.58450800700E+02  0.22887266678E+02 -0.16876403031E+02  0.65170745400E+02  0.46999998093E+01 0. -1.
        5    1    3    3  502    0 -0.36610895706E+02 -0.49887492531E+02  0.19910417043E+03  0.20855138522E+03  0.46999998093E+01 0. -1.
       -5    1    3    3    0  502 -0.42679738020E+02 -0.80916372801E+02  0.35741257154E+02  0.98328769370E+02  0.46999998093E+01 0. -1.
</event>
<event>
10   0  0.1583500E-03  0.1889408E+03  0.7818609E-02  0.1170339E+00
       21   -1    0    0  501  503  0.00000000000E+00  0.00000000000E+00  0.78184997023E+03  0.78184997023E+03  0.00000000000E+00 0.  1.
       -2   -1    0    0    0  501  0.00000000000E+00  0.00000000000E+00 -0.46688628468E+02  0.46688628537E+02  0.25500000920E-02 0.  1.
       25    2    1    2    0    0 -0.32310708820E+01 -0.76940264480E+02  0.13549668598E+03  0.19981265068E+03  0.12504199031E+03 0.  0.
       -6    2    1    2    0  503  0.32310708820E+01  0.76940264480E+02  0.59966465578E+03  0.62872594809E+03  0.17253513929E+03 0.  0.
      -24    2    4    4    0    0 -0.53156234668E+02  0.88447990768E+02  0.39409162137E+03  0.41519768657E+03  0.80201499651E+02 0.  0.
       15    1    5    5    0    0 -0.19790929740E+02 -0.12838829160E+02  0.84782693328E+02  0.88021470397E+02  0.17769999504E+01 0. -1.
      -16    1    5    5    0    0 -0.33365304928E+02  0.10128681993E+03  0.30930892804E+03  0.32717621617E+03  0.00000000000E+00 0.  1.
       -5    1    4    4    0  503  0.56387305550E+02 -0.11507726288E+02  0.20557303441E+03  0.21352826152E+03  0.46999998093E+01 0.  1.
        5    1    3    3  502    0  0.10819870051E+02 -0.63836021186E+02  0.15742314804E+03  0.17028283744E+03  0.46999998093E+01 0.  1.
       -5    1    3    3    0  502 -0.14050940933E+02 -0.13104243294E+02 -0.21926462058E+02  0.29529813240E+02  0.46999998093E+01 0.  1.
</event>
<event>
10   0  0.1583500E-03  0.2832859E+03  0.7818609E-02  0.1097502E+00
       21   -1    0    0  501  503  0.00000000000E+00  0.00000000000E+00  0.10741327820E+03  0.10741327820E+03  0.00000000000E+00 0. -1.
        2   -1    0    0  503    0  0.00000000000E+00  0.00000000000E+00 -0.11321303715E+04  0.11321303715E+04  0.25500000920E-02 0.  1.
       25    2    1    2    0    0 -0.21377945466E+03  0.71908622113E+02 -0.88858559947E+03  0.92524648028E+03  0.12499670597E+03 0.  0.
        6    2    1    2  501    0  0.21377945466E+03 -0.71908622113E+02 -0.13613149385E+03  0.31429716945E+03  0.17140134754E+03 0.  0.
       24    2    4    4    0    0  0.16614510570E+03 -0.96527348934E+02 -0.55302771342E+02  0.21718648368E+03  0.84792965128E+02 0.  0.
      -11    1    5    5    0    0  0.48175277473E+02 -0.51093077688E+02 -0.57483902114E+02  0.90751082361E+02  0.51099999109E-03 0.  1.
       12    1    5    5    0    0  0.11796982822E+03 -0.45434271245E+02  0.21811307716E+01  0.12643540132E+03  0.00000000000E+00 0. -1.
        5    1    4    4  501    0  0.47634348965E+02  0.24618726820E+02 -0.80828722507E+02  0.97110685776E+02  0.46999998093E+01 0. -1.
        5    1    3    3  502    0 -0.23824716891E+02 -0.27715608801E+02 -0.22047263870E+03  0.22353086257E+03  0.46999998093E+01 0. -1.
       -5    1    3    3    0  502 -0.18995473777E+03  0.99624230914E+02 -0.66811296077E+03  0.70171561771E+03  0.46999998093E+01 0. -1.
</event>
<event>
10   0  0.1583500E-03  0.3654033E+03  0.7818609E-02  0.1058385E+00
       21   -1    0    0  501  503  0.00000000000E+00  0.00000000000E+00  0.12344798389E+03  0.12344798389E+03  0.00000000000E+00 0.  1.
        2   -1    0    0  503    0  0.00000000000E+00  0.00000000000E+00 -0.13803881421E+04  0.13803881421E+04  0.25500000920E-02 0. -1.
       25    2    1    2    0    0 -0.29660268781E+03  0.12748309834E+03 -0.99703335151E+03  0.10554265918E+04  0.12499876758E+03 0.  0.
        6    2    1    2  501    0  0.29660268781E+03 -0.12748309834E+03 -0.25990680668E+03  0.44840953417E+03  0.17115626601E+03 0.  0.
       24    2    4    4    0    0  0.29921731806E+03 -0.12767747619E+03 -0.20388809049E+03  0.39213289039E+03  0.79782886157E+02 0.  0.
      -11    1    5    5    0    0  0.10562568859E+03 -0.10249726153E+02 -0.87530695295E+02  0.13756258792E+03  0.51099999109E-03 0.  1.
       12    1    5    5    0    0  0.19359162947E+03 -0.11742775004E+03 -0.11635739520E+03  0.25457030247E+03  0.00000000000E+00 0. -1.
        5    1    4    4  501    0 -0.26146302472E+01  0.19437784520E+00 -0.56018716189E+02  0.56276643785E+02  0.46999998093E+01 0. -1.
        5    1    3    3  502    0 -0.18816119407E+03  0.19284086259E+02 -0.62653789400E+03  0.65448325690E+03  0.46999998093E+01 0.  1.
       -5    1    3    3    0  502 -0.10844149375E+03  0.10819901208E+03 -0.37049545750E+03  0.40094333491E+03  0.46999998093E+01 0.  1.
</event>
<event>
10   0  0.1583500E-03  0.2026756E+03  0.7818609E-02  0.1156500E+00
        2   -1    0    0  503    0  0.00000000000E+00  0.00000000000E+00  0.12407915255E+04  0.12407915255E+04  0.00000000000E+00 0. -1.
       21   -1    0    0  501  503  0.00000000000E+00  0.00000000000E+00 -0.31779940171E+02  0.31779940171E+02  0.25500000920E-02 0.  1.
       25    2    1    2    0    0  0.10055430596E+03  0.33482449906E+02  0.30627698350E+03  0.34736490647E+03  0.12499817890E+03 0.  0.
        6    2    1    2  501    0 -0.10055430596E+03 -0.33482449906E+02  0.90273460187E+03  0.92520655924E+03  0.17275755541E+03 0.  0.
       24    2    4    4    0    0 -0.64255491130E+02 -0.88524990989E+02  0.56219693761E+03  0.57831280596E+03  0.80092838075E+02 0.  0.
      -13    1    5    5    0    0  0.90459027954E+01 -0.51295509825E+02  0.18067730613E+03  0.18803552271E+03  0.10565999895E+00 0.  1.
       14    1    5    5    0    0 -0.73301393926E+02 -0.37229481164E+02  0.38151963148E+03  0.39027728325E+03  0.00000000000E+00 0. -1.
        5    1    4    4  501    0 -0.36298814825E+02  0.55042541083E+02  0.34053766426E+03  0.34689375328E+03  0.46999998093E+01 0. -1.
        5    1    3    3  502    0  0.11200090527E+03  0.65218779579E+02  0.24795916183E+03  0.27982767541E+03  0.46999998093E+01 0. -1.
       -5    1    3    3    0  502 -0.11446599317E+02 -0.31736329674E+02  0.58317821665E+02  0.67537231058E+02  0.46999998093E+01 0. -1.
</event>
<event>
10   0  0.1583500E-03  0.4114704E+03  0.7818609E-02  0.1041359E+00
        2   -1    0    0  503    0  0.00000000000E+00  0.00000000000E+00  0.21724747103E+03  0.21724747105E+03  0.00000000000E+00 0.  1.
       21   -1    0    0  501  503  0.00000000000E+00  0.00000000000E+00 -0.79574291566E+03  0.79574291566E+03  0.25500000920E-02 0. -1.
       25    2    1    2    0    0  0.74998150088E+02 -0.36620268806E+03 -0.15791909334E+03  0.42460923117E+03  0.12500171155E+03 0.  0.
        6    2    1    2  501    0 -0.74998150088E+02  0.36620268806E+03 -0.42057635128E+03  0.58838115554E+03  0.17198484140E+03 0.  0.
       24    2    4    4    0    0 -0.75291720177E+02  0.14349663285E+03 -0.24753471763E+03  0.30631100435E+03  0.79327600429E+02 0.  0.
      -13    1    5    5    0    0 -0.18216635132E+02  0.18388273903E+02 -0.33923502023E+01  0.26105432702E+02  0.10565999895E+00 0.  1.
       14    1    5    5    0    0 -0.57075085045E+02  0.12510835895E+03 -0.24414236743E+03  0.28020557165E+03  0.00000000000E+00 0. -1.
        5    1    4    4  501    0  0.29357008953E+00  0.22270605522E+03 -0.17304163365E+03  0.28207015118E+03  0.46999998093E+01 0. -1.
        5    1    3    3  502    0 -0.18354494932E+02 -0.13998109250E+03 -0.10002104367E+03  0.17308348540E+03  0.46999998093E+01 0. -1.
       -5    1    3    3    0  502  0.93352645020E+02 -0.22622159556E+03 -0.57898049663E+02  0.25152574577E+03  0.46999998093E+01 0. -1.
</event>
<event>
10   0  0.1583500E-03  0.2596409E+03  0.7818609E-02  0.1111899E+00
        2   -1    0    0  503    0  0.00000000000E+00  0.00000000000E+00  0.94687783576E+03  0.94687783577E+03  0.00000000000E+00 0.  1.
       21   -1    0    0  501  503  0.00000000000E+00  0.00000000000E+00 -0.11958680572E+03  0.11958680572E+03  0.25500000920E-02 0.  1.
       25    2    1    2    0    0 -0.10301904475E+03  0.16506745113E+03  0.76536269298E+03  0.79954045439E+03  0.12499879759E+03 0.  0.
        6    2    1    2  501    0  0.10301904475E+03 -0.16506745113E+03  0.61928337072E+02  0.26692418709E+03  0.17191048752E+03 0.  0.
       24    2    4    4    0    0 -0.36161296414E+01 -0.11910264504E+03  0.34579528551E+02  0.14753460990E+03  0.79826066390E+02 0.  0.
      -15    1    5    5    0    0  0.31636522980E+02 -0.36034218157E+02 -0.64314870760E+01  0.48413388843E+02  0.17769999504E+01 0.  1.
       16    1    5    5    0    0 -0.35252652621E+02 -0.83068426878E+02  0.41011015627E+02  0.99121221056E+02  0.00000000000E+00 0. -1.
        5    1    4    4  501    0  0.10663517439E+03 -0.45964806095E+02  0.27348808520E+02  0.11938957720E+03  0.46999998093E+01 0. -1.
        5    1    3    3  502    0 -0.25366604298E+02  0.13601146073E+02  0.34166394918E+03  0.34290640116E+03  0.46999998093E+01 0.  1.
       -5    1    3    3    0  502 -0.77652440453E+02  0.15146630506E+03  0.42369874379E+03  0.45663405323E+03  0.46999998093E+01 0.  1.
</event>
<event>
10   0  0.1583500E-03  0.2226966E+03  0.7818609E-02  0.1138610E+00
        2   -1    0    0  503    0  0.00000000000E+00  0.00000000000E+00  0.22475625369E+04  0.22475625369E+04  0.00000000000E+00 0.  1.
       21   -1    0    0  501  503  0.00000000000E+00  0.00000000000E+00 -0.18898510060E+02  0.18898510060E+02  0.25500000920E-02 0.  1.
       25    2    1    2    0    0  0.95706831403E+02 -0.10476337535E+03  0.10728984604E+04  0.10894360512E+04  0.12499856333E+03 0.  0.
        6    2    1    2  501    0 -0.95706831403E+02  0.10476337535E+03  0.11557655664E+04  0.11770249958E+04  0.17163517645E+03 0.  0.
       24    2    4    4    0    0  0.86684993465E+01  0.77331914392E+02  0.58618495285E+03  0.59729155698E+03  0.84196420508E+02 0.  0.
      -13    1    5    5    0    0  0.31180356504E+01  0.58652257596E+02  0.15640228696E+03  0.16706733971E+03  0.10565999895E+00 0.  1.
       14    1    5    5    0    0  0.55504636962E+01  0.18679656796E+02  0.42978266589E+03  0.43022421727E+03  0.00000000000E+00 0. -1.
        5    1    4    4  501    0 -0.10437533075E+03  0.27431460960E+02  0.56958061353E+03  0.57973343877E+03  0.46999998093E+01 0. -1.
        5    1    3    3  502    0 -0.25867138523E+02 -0.42640332433E+02  0.37108835736E+03  0.37445422387E+03  0.46999998093E+01 0.  1.
       -5    1    3    3    0  502  0.12157396993E+03 -0.62123042920E+02  0.70181010308E+03  0.71498182733E+03  0.46999998093E+01 0.  1.
</event>
<event>
10   0  0.1583500E-03  0.1811513E+03  0.7818609E-02  0.1178961E+00
        2   -1    0    0  503    0  0.00000000000E+00  0.00000000000E+00  0.46044308043E+03  0.46044308044E+03  0.00000000000E+00 0. -1.
       21   -1    0    0  501  503  0.00000000000E+00  0.00000000000E+00 -0.17661744312E+03  0.17661744312E+03  0.25500000920E-02 0. -1.
       25    2    1    2    0    0 -0.55933912688E+02  0.57109767304E+01  0.39935448877E+03  0.42220547426E+03  0.12494893739E+03 0.  0.
        6    2    1    2  501    0  0.55933912688E+02 -0.57109767304E+01 -0.11552885145E+03  0.21485504931E+03  0.17220499078E+03 0.  0.
       24    2    4    4    0    0 -0.26060310454E+02 -0.39145748974E+02 -0.54190699813E+02  0.10703392212E+03  0.79423542438E+02 0.  0.
      -15    1    5    5    0    0 -0.39866691508E+01  0.23105139878E+02 -0.34942899220E+01  0.23772017386E+02  0.17769999504E+01 0.  1.
       16    1    5    5    0    0 -0.22073641303E+02 -0.62250888852E+02 -0.50696409891E+02  0.83261904729E+02  0.00000000000E+00 0. -1.
        5    1    4    4  501    0  0.81994223142E+02  0.33434772243E+02 -0.61338151641E+02  0.10782112719E+03  0.46999998093E+01 0. -1.
        5    1    3    3  502    0 -0.64489540612E+02  0.13731220384E+02  0.85385981439E+02  0.10798288330E+03  0.46999998093E+01 0.  1.
       -5    1    3    3    0  502  0.85556279240E+01 -0.80202436539E+01  0.31396850733E+03  0.31422259096E+03  0.46999998093E+01 0.  1.
</event>
<event>
10   0  0.1583500E-03  0.1714661E+03  0.7818609E-02  0.1190430E+00
        2   -1    0    0  503    0  0.00000000000E+00  0.00000000000E+00  0.59950208868E+03  0.59950208869E+03  0.00000000000E+00 0. -1.
       21   -1    0    0  501  503  0.00000000000E+00  0.00000000000E+00 -0.38111004981E+02  0.38111004981E+02  0.25500000920E-02 0. -1.
       25    2    1    2    0    0 -0.51952108943E+01  0.12425457447E+01  0.29951371805E+03  0.32459489259E+03  0.12499937143E+03 0.  0.
        6    2    1    2  501    0  0.51952108943E+01 -0.12425457447E+01  0.26187736566E+03  0.31301820109E+03  0.17138292048E+03 0.  0.
       24    2    4    4    0    0  0.73810023148E+01 -0.10958058427E+01  0.37293051174E+02  0.88374030168E+02  0.79771658856E+02 0.  0.
      -11    1    5    5    0    0 -0.13209572811E+02 -0.16720390519E+02  0.53690158611E+02  0.57764153287E+02  0.51099999109E-03 0.  1.
       12    1    5    5    0    0  0.20590575126E+02  0.15624584677E+02 -0.16397107438E+02  0.30609876881E+02  0.00000000000E+00 0. -1.
        5    1    4    4  501    0 -0.21857914205E+01 -0.14673990208E+00  0.22458431448E+03  0.22464417092E+03  0.46999998093E+01 0. -1.
        5    1    3    3  502    0 -0.18340417465E+02  0.22712635897E+02  0.62591128360E+01  0.30224182932E+02  0.46999998093E+01 0. -1.
       -5    1    3    3    0  502  0.13145206570E+02 -0.21470090153E+02  0.29325460521E+03  0.29437070965E+03  0.46999998093E+01 0. -1.
</event>
<event>
10   0  0.1583500E-03  0.2519129E+03  0.7818609E-02  0.1117321E+00
        2   -1    0    0  503    0  0.00000000000E+00  0.00000000000E+00  0.95913237245E+03  0.95913237245E+03  0.00000000000E+00 0. -1.
       21   -1    0    0  501  503  0.00000000000E+00  0.00000000000E+00 -0.84678599335E+02  0.84678599335E+02  0.25500000920E-02 0. -1.
       25    2    1    2    0    0 -0.20566313629E+02 -0.18085189740E+03  0.70859305357E+03  0.74219878900E+03  0.12499817911E+03 0.  0.
        6    2    1    2  501    0  0.20566313629E+02  0.18085189740E+03  0.16586071954E+03  0.30161218278E+03  0.17415438113E+03 0.  0.
       24    2    4    4    0    0  0.23511987486E+02  0.31054581243E+02  0.11012491556E+03  0.14168569102E+03  0.80188137791E+02 0.  0.
      -11    1    5    5    0    0  0.53245714371E+01 -0.22777404146E+02  0.65140966457E+02  0.69213486488E+02  0.51099999109E-03 0.  1.
       12    1    5    5    0    0  0.18187416049E+02  0.53831985389E+02  0.44983949102E+02  0.72472204536E+02  0.00000000000E+00 0. -1.
        5    1    4    4  501    0 -0.29456738571E+01  0.14979731616E+03  0.55735803982E+02  0.15992649176E+03  0.46999998093E+01 0. -1.
        5    1    3    3  502    0 -0.16559584760E+02  0.15921719531E+02  0.61400458093E+02  0.65725392752E+02  0.46999998093E+01 0.  1.
       -5    1    3    3    0  502 -0.40067288689E+01 -0.19677361693E+03  0.64719259548E+03  0.67647339625E+03  0.46999998093E+01 0.  1.
</event>
<event>
10   0  0.1583500E-03  0.2989882E+03  0.7818609E-02  0.1088871E+00
       21   -1    0    0  501  503  0.00000000000E+00  0.00000000000E+00  0.49786080831E+02  0.49786080831E+02  0.00000000000E+00 0. -1.
        2   -1    0    0  503    0  0.00000000000E+00  0.00000000000E+00 -0.17575265328E+04  0.17575265328E+04  0.25500000920E-02 0.  1.
       25    2    1    2    0    0 -0.16878050659E+03  0.17778797409E+03 -0.10381587632E+04  0.10740094269E+04  0.12500883330E+03 0.  0.
        6    2    1    2  501    0  0.16878050659E+03 -0.17778797409E+03 -0.66958168880E+03  0.73330318672E+03  0.17116805355E+03 0.  0.
       24    2    4    4    0    0  0.15382547426E+03 -0.18207122058E+03 -0.67284534549E+03  0.71672788445E+03  0.64542974068E+02 0.  0.
      -15    1    5    5    0    0  0.96803060043E+02 -0.64904024259E+02 -0.30919550680E+03  0.33043665649E+03  0.17769999504E+01 0.  1.
       16    1    5    5    0    0  0.57022414219E+02 -0.11716719632E+03 -0.36364983869E+03  0.38629122795E+03  0.00000000000E+00 0. -1.
        5    1    4    4  501    0  0.14955032326E+02  0.42832464893E+01  0.32636566943E+01  0.16575302277E+02  0.46999998093E+01 0. -1.
        5    1    3    3  502    0 -0.11032400504E+03  0.61428193504E+02 -0.31851562754E+03  0.34266471080E+03  0.46999998093E+01 0.  1.
       -5    1    3    3    0  502 -0.58456501545E+02  0.11635978059E+03 -0.71964313566E+03  0.73134471613E+03  0.46999998093E+01 0.  1.
</event>
<event>
10   0  0.1583500E-03  0.1835926E+03  0.7818609E-02  0.1175632E+00
       -4   -1    0    0    0  501  0.00000000000E+00  0.00000000000E+00  0.23936983189E+03  0.23937320092E+03  0.00000000000E+00 0.  1.
       21   -1    0    0  501  503  0.00000000000E+00  0.00000000000E+00 -0.11493960526E+03  0.11493960526E+03  0.12699999809E+01 0.  1.
       25    2    1    2    0    0  0.48695577452E+02 -0.46257126740E+02  0.88505652093E+02  0.16723845833E+03  0.12499788180E+03 0.  0.
       -6    2    1    2    0  503 -0.48695577452E+02  0.46257126740E+02  0.35924574539E+02  0.18707434784E+03  0.17086619188E+03 0.  0.
      -24    2    4    4    0    0 -0.63710913776E+02 -0.18322073467E+02  0.53193714803E+02  0.11839941335E+03  0.82426154080E+02 0.  0.
       13    1    5    5    0    0 -0.24500339217E+02 -0.78339216004E+00  0.68535589912E+02  0.72787489128E+02  0.10565999895E+00 0. -1.
      -14    1    5    5    0    0 -0.39210574559E+02 -0.17538681307E+02 -0.15341875108E+02  0.45611924220E+02  0.00000000000E+00 0.  1.
       -5    1    4    4    0  503  0.15015336324E+02  0.64579200207E+02 -0.17269140264E+02  0.68674934495E+02  0.46999998093E+01 0.  1.
        5    1    3    3  502    0  0.12760115379E+02 -0.12879037059E+02  0.11136127512E+03  0.11292525729E+03  0.46999998093E+01 0.  1.
       -5    1    3    3    0  502  0.35935462073E+02 -0.33378089681E+02 -0.22855623027E+02  0.54313201041E+02  0.46999998093E+01 0.  1.
</event>
<event>
10   0  0.1583500E-03  0.1747304E+03  0.7818609E-02  0.1186214E+00
       21   -1    0    0  501  503  0.00000000000E+00  0.00000000000E+00  0.52336779625E+02  0.52336779625E+02  0.00000000000E+00 0. -1.
        2   -1    0    0  503    0  0.00000000000E+00  0.00000000000E+00 -0.80306707233E+03  0.80306707233E+03  0.25500000920E-02 0. -1.
       25    2    1    2    0    0 -0.13824236869E+01 -0.34964138983E+02 -0.62947963187E+03  0.64272469714E+03  0.12500410899E+03 0.  0.
        6    2    1    2  501    0  0.13824236869E+01  0.34964138983E+02 -0.12125066083E+03  0.21267915481E+03  0.17119082344E+03 0.  0.
       24    2    4    4    0    0  0.64478978660E+02  0.22869805055E+02 -0.99895073969E+02  0.14481458931E+03  0.79446037042E+02 0.  0.
      -11    1    5    5    0    0 -0.65226945301E+01  0.22705929511E+02 -0.57390174793E+02  0.62062363329E+02  0.51099999109E-03 0.  1.
       12    1    5    5    0    0  0.71001673190E+02  0.16387554386E+00 -0.42504899176E+02  0.82752225982E+02  0.00000000000E+00 0. -1.
        5    1    4    4  501    0 -0.63096554973E+02  0.12094333928E+02 -0.21355586862E+02  0.67864565504E+02  0.46999998093E+01 0. -1.
        5    1    3    3  502    0 -0.47636502927E+02 -0.58866343964E+02 -0.32083495250E+03  0.32968415128E+03  0.46999998093E+01 0. -1.
       -5    1    3    3    0  502  0.46254079240E+02  0.23902204981E+02 -0.30864467937E+03  0.31304054586E+03  0.46999998093E+01 0. -1.
</event>
<event>
10   0  0.1583500E-03  0.1869389E+03  0.7818609E-02  0.1172628E+00
       -4   -1    0    0    0  501  0.00000000000E+00  0.00000000000E+00  0.99202541644E+02  0.99210670639E+02  0.00000000000E+00 0.  1.
       21   -1    0    0  501  503  0.00000000000E+00  0.00000000000E+00 -0.40925949011E+03  0.40925949011E+03  0.12699999809E+01 0.  1.
       25    2    1    2    0    0  0.52832121809E+02 -0.47858878408E+02  0.28966268317E+01  0.14393473229E+03  0.12500844521E+03 0.  0.
       -6    2    1    2    0  503 -0.52832121809E+02  0.47858878408E+02 -0.31295357530E+03  0.36453542847E+03  0.17281328935E+03 0.  0.
      -24    2    4    4    0    0 -0.42271284506E+02  0.97953443088E+02 -0.25164877520E+03  0.28452689637E+03  0.79036132181E+02 0.  0.
       15    1    5    5    0    0 -0.38574521822E+02  0.71309103816E+02 -0.92044309993E+02  0.12267149119E+03  0.17769999504E+01 0. -1.
      -16    1    5    5    0    0 -0.36967626833E+01  0.26644339272E+02 -0.15960446521E+03  0.16185540518E+03  0.00000000000E+00 0.  1.
       -5    1    4    4    0  503 -0.10560837304E+02 -0.50094564681E+02 -0.61304800099E+02  0.80008532098E+02  0.46999998093E+01 0.  1.
        5    1    3    3  502    0  0.13994145433E+02 -0.55118658269E+02 -0.51279078662E+02  0.76717250358E+02  0.46999998093E+01 0.  1.
       -5    1    3    3    0  502  0.38837976376E+02  0.72597798617E+01  0.54175705494E+02  0.67217481927E+02  0.46999998093E+01 0.  1.
</event>
<event>
10   0  0.1583500E-03  0.1846650E+03  0.7818609E-02  0.1174741E+00
        2   -1    0    0  503    0  0.00000000000E+00  0.00000000000E+00  0.11725636497E+04  0.11725636497E+04  0.00000000000E+00 0. -1.
       21   -1    0    0  501  503  0.00000000000E+00  0.00000000000E+00 -0.51981922184E+02  0.51981922184E+02  0.25500000920E-02 0.  1.
       25    2    1    2    0    0 -0.18215170225E+01 -0.67942856537E+02  0.98557374804E+03  0.99579175226E+03  0.12500420535E+03 0.  0.
        6    2    1    2  501    0  0.18215170225E+01  0.67942856537E+02  0.13500797945E+03  0.22875381960E+03  0.17170208441E+03 0.  0.
       24    2    4    4    0    0 -0.48324973615E+01 -0.95245861912E+01  0.12698349786E+03  0.15044696873E+03  0.79971312979E+02 0.  0.
      -13    1    5    5    0    0  0.13219796051E+02  0.29148217685E+02  0.83925441683E+02  0.89821336706E+02  0.10565999895E+00 0.  1.
       14    1    5    5    0    0 -0.18052293413E+02 -0.38672803876E+02  0.43058056178E+02  0.60625632029E+02  0.00000000000E+00 0. -1.
        5    1    4    4  501    0  0.66540143841E+01  0.77467442728E+02  0.80244815874E+01  0.78306850870E+02  0.46999998093E+01 0. -1.
        5    1    3    3  502    0 -0.53337103056E+02 -0.58793660376E+02  0.39749385099E+03  0.40537019209E+03  0.46999998093E+01 0. -1.
       -5    1    3    3    0  502  0.51515586033E+02 -0.91491961608E+01  0.58807989705E+03  0.59042156017E+03  0.46999998093E+01 0. -1.
</event>
<event>
10   0  0.1583500E-03  0.1806135E+03  0.7818609E-02  0.1179891E+00
        4   -1    0    0  503    0  0.00000000000E+00  0.00000000000E+00  0.31454560888E+02  0.31480189018E+02  0.00000000000E+00 0. -1.
       21   -1    0    0  501  503  0.00000000000E+00  0.00000000000E+00 -0.92868158608E+03  0.92868158608E+03  0.12699999809E+01 0. -1.
       25    2    1    2    0    0  0.40724034045E+02 -0.32253759119E+02 -0.21207201800E+03  0.25160082549E+03  0.12501872916E+03 0.  0.
        6    2    1    2  501    0 -0.40724034045E+02  0.32253759119E+02 -0.68515500719E+03  0.70856094961E+03  0.17298116517E+03 0.  0.
       24    2    4    4    0    0 -0.47738687049E+02 -0.37133783567E+02 -0.51601730877E+03  0.52554868919E+03  0.79181194989E+02 0.  0.
      -13    1    5    5    0    0  0.10142002874E+02 -0.23914759256E+02 -0.56185611039E+02  0.61899999874E+02  0.10565999895E+00 0.  1.
       14    1    5    5    0    0 -0.57880689923E+02 -0.13219024312E+02 -0.45983169773E+03  0.46364868932E+03  0.00000000000E+00 0. -1.
        5    1    4    4  501    0  0.70146530044E+01  0.69387542686E+02 -0.16913769842E+03  0.18301226042E+03  0.46999998093E+01 0. -1.
        5    1    3    3  502    0 -0.16531882439E+02  0.36396739847E+02 -0.10244659468E+03  0.11007007117E+03  0.46999998093E+01 0.  1.
       -5    1    3    3    0  502  0.57255916484E+02 -0.68650498966E+02 -0.10962542332E+03  0.14153075432E+03  0.46999998093E+01 0.  1.
</event>
<event>
10   0  0.1583500E-03  0.1800192E+03  0.7818609E-02  0.1180411E+00
       21   -1    0    0  501  503  0.00000000000E+00  0.00000000000E+00  0.45983950202E+03  0.45983950202E+03  0.00000000000E+00 0. -1.
       -2   -1    0    0    0  501  0.00000000000E+00  0.00000000000E+00 -0.92274505525E+02  0.92274505561E+02  0.25500000920E-02 0. -1.
       25    2    1    2    0    0 -0.49560386720E+02 -0.13348144578E+02 -0.82687040228E+01  0.13539122530E+03  0.12501202953E+03 0.  0.
       -6    2    1    2    0  503  0.49560386720E+02  0.13348144578E+02  0.37583370052E+03  0.41672278228E+03  0.17254710062E+03 0.  0.
      -24    2    4    4    0    0  0.71548952843E+02  0.63875381655E+02  0.24593563504E+03  0.27554170657E+03  0.78991002283E+02 0.  0.
       13    1    5    5    0    0  0.59733043030E+02  0.42128914662E+01  0.89365766505E+02  0.10757339946E+03  0.10565999895E+00 0. -1.
      -14    1    5    5    0    0  0.11815909813E+02  0.59662490189E+02  0.15656986853E+03  0.16796830711E+03  0.00000000000E+00 0.  1.
       -5    1    4    4    0  503 -0.21988566123E+02 -0.50527237077E+02  0.12989806548E+03  0.14118107572E+03  0.46999998093E+01 0.  1.
        5    1    3    3  502    0 -0.16948764189E+01 -0.64385984995E+02  0.14268579780E+01  0.64595306267E+02  0.46999998093E+01 0.  1.
       -5    1    3    3    0  502 -0.47865510301E+02  0.51037840417E+02 -0.96955620007E+01  0.70795919031E+02  0.46999998093E+01 0.  1.
</event>
<event>
10   0  0.1583500E-03  0.2151526E+03  0.7818609E-02  0.1145054E+00
        2   -1    0    0  503    0  0.00000000000E+00  0.00000000000E+00  0.56008455800E+03  0.56008455800E+03  0.00000000000E+00 0. -1.
       21   -1    0    0  501  503  0.00000000000E+00  0.00000000000E+00 -0.11475668828E+03  0.11475668828E+03  0.25500000920E-02 0. -1.
       25    2    1    2    0    0 -0.17837545767E+02 -0.12772757326E+03  0.42175188660E+03  0.45840084158E+03  0.12499666678E+03 0.  0.
        6    2    1    2  501    0  0.17837545767E+02  0.12772757326E+03  0.23575983121E+02  0.21644040470E+03  0.17221530361E+03 0.  0.
       24    2    4    4    0    0  0.32823546877E+02  0.35552537289E+02  0.75640350937E+02  0.10941888406E+03  0.62527284945E+02 0.  0.
      -11    1    5    5    0    0 -0.13888705432E+02 -0.45851894194E+01  0.27875109266E+02  0.31479228349E+02  0.51099999109E-03 0.  1.
       12    1    5    5    0    0  0.46712252309E+02  0.40137726708E+02  0.47765241670E+02  0.77939655714E+02  0.00000000000E+00 0. -1.
        5    1    4    4  501    0 -0.14986001109E+02  0.92175035969E+02 -0.52064367815E+02  0.10702152064E+03  0.46999998093E+01 0. -1.
        5    1    3    3  502    0 -0.46402180788E+02 -0.80844285616E+02  0.12189486267E+03  0.15352331563E+03  0.46999998093E+01 0.  1.
       -5    1    3    3    0  502  0.28564635021E+02 -0.46883287642E+02  0.29985702393E+03  0.30487752595E+03  0.46999998093E+01 0.  1.
</event>
<event>
10   0  0.1583500E-03  0.1742932E+03  0.7818609E-02  0.1186976E+00
        2   -1    0    0  503    0  0.00000000000E+00  0.00000000000E+00  0.99901471397E+03  0.99901471397E+03  0.00000000000E+00 0.  1.
       21   -1    0    0  501  503  0.00000000000E+00  0.00000000000E+00 -0.80780532220E+02  0.80780532220E+02  0.25500000920E-02 0.  1.
       25    2    1    2    0    0  0.20107376260E+02  0.22637000952E+02  0.89473115610E+03  0.90392452796E+03  0.12497587833E+03 0.  0.
        6    2    1    2  501    0 -0.20107376260E+02 -0.22637000952E+02  0.23503025653E+02  0.17587071823E+03  0.17164316743E+03 0.  0.
       24    2    4    4    0    0  0.16424065562E+02 -0.62428164513E+02  0.51818603884E+02  0.11470091434E+03  0.79398402936E+02 0.  0.
      -13    1    5    5    0    0 -0.11320743476E+02  0.51999498172E+01 -0.12270150443E+02  0.17486179311E+02  0.10565999895E+00 0.  1.
       14    1    5    5    0    0  0.27744809038E+02 -0.67628114330E+02  0.64088754327E+02  0.97214735033E+02  0.00000000000E+00 0. -1.
        5    1    4    4  501    0 -0.36531441822E+02  0.39791163561E+02 -0.28315578231E+02  0.61169803890E+02  0.46999998093E+01 0. -1.
        5    1    3    3  502    0  0.90744694451E+01 -0.41718804319E+02  0.62062609692E+03  0.62211063871E+03  0.46999998093E+01 0. -1.
       -5    1    3    3    0  502  0.11032906815E+02  0.64355805271E+02  0.27410505918E+03  0.28181388925E+03  0.46999998093E+01 0. -1.
</event>
<event>
10   0  0.1583500E-03  0.1768397E+03  0.7818609E-02  0.1182904E+00
       -4   -1    0    0    0  501  0.00000000000E+00  0.00000000000E+00  0.13081125369E+03  0.13081741853E+03  0.00000000000E+00 0.  1.
       21   -1    0    0  501  503  0.00000000000E+00  0.00000000000E+00 -0.36953231470E+03  0.36953231470E+03  0.12699999809E+01 0.  1.
       25    2    1    2    0    0 -0.12782809536E+02 -0.48874014336E+02  0.64409615611E+02  0.14940746218E+03  0.12498768610E+03 0.  0.
       -6    2    1    2    0  503  0.12782809536E+02  0.48874014336E+02 -0.30313067662E+03  0.35094227105E+03  0.16947035434E+03 0.  0.
      -24    2    4    4    0    0  0.39621085076E+02  0.73053623629E+02 -0.12774906562E+03  0.17181732578E+03  0.79339191860E+02 0.  0.
       15    1    5    5    0    0  0.46251405607E+02  0.22377349040E+02 -0.10281274438E+03  0.11495023448E+03  0.17769999504E+01 0. -1.
      -16    1    5    5    0    0 -0.66303205314E+01  0.50676274589E+02 -0.24936321236E+02  0.56867091304E+02  0.00000000000E+00 0.  1.
       -5    1    4    4    0  503 -0.26838275540E+02 -0.24179609293E+02 -0.17538161100E+03  0.17912494526E+03  0.46999998093E+01 0.  1.
        5    1    3    3  502    0  0.13413047291E+02  0.37265956537E+02  0.23465016186E+01  0.39953190390E+02  0.46999998093E+01 0.  1.
       -5    1    3    3    0  502 -0.26195856827E+02 -0.86139970873E+02  0.62063113993E+02  0.10945427179E+03  0.46999998093E+01 0.  1.
</event>
<event>
10   0  0.1583500E-03  0.1726695E+03  0.7818609E-02  0.1188722E+00
       21   -1    0    0  501  503  0.00000000000E+00  0.00000000000E+00  0.63675415700E+02  0.63675415700E+02  0.00000000000E+00 0. -1.
        2   -1    0    0  503    0  0.00000000000E+00  0.00000000000E+00 -0.96547435195E+03  0.96547435195E+03  0.25500000920E-02 0. -1.
       25    2    1    2    0    0 -0.54205935055E+01 -0.23060547601E+02 -0.83399606869E+03  0.84364510355E+03  0.12500578577E+03 0.  0.
        6    2    1    2  501    0  0.54205935055E+01  0.23060547601E+02 -0.67802867563E+02  0.18550466410E+03  0.17103677927E+03 0.  0.
       24    2    4    4    0    0 -0.27814480457E+02  0.67156584691E+02 -0.14234507914E+02  0.10842879380E+03  0.79186677667E+02 0.  0.
      -11    1    5    5    0    0 -0.38379958862E+02  0.16859708486E+02 -0.33377563278E+02  0.53584818214E+02  0.51099999109E-03 0.  1.
       12    1    5    5    0    0  0.10565478405E+02  0.50296876205E+02  0.19143055363E+02  0.54843975590E+02  0.00000000000E+00 0. -1.
        5    1    4    4  501    0  0.33235073962E+02 -0.44096037090E+02 -0.53568359649E+02  0.77075870297E+02  0.46999998093E+01 0. -1.
        5    1    3    3  502    0  0.10740848437E+02 -0.69947931077E+02 -0.35148586074E+03  0.35857004780E+03  0.46999998093E+01 0.  1.
       -5    1    3    3    0  502 -0.16161441942E+02  0.46887383476E+02 -0.48251020795E+03  0.48507505575E+03  0.46999998093E+01 0.  1.
</event>
<event>
10   0  0.1583500E-03  0.1963248E+03  0.7818609E-02  0.1162408E+00
       21   -1    0    0  501  503  0.00000000000E+00  0.00000000000E+00  0.82406845813E+02  0.82406845813E+02  0.00000000000E+00 0.  1.
        2   -1    0    0  503    0  0.00000000000E+00  0.00000000000E+00 -0.53991464934E+03  0.53991464935E+03  0.25500000920E-02 0.  1.
       25    2    1    2    0    0 -0.81976537213E+02  0.48377098517E+02 -0.38009195239E+03  0.41128441297E+03  0.12499791903E+03 0.  0.
        6    2    1    2  501    0  0.81976537213E+02 -0.48377098517E+02 -0.77415851138E+02  0.21103708219E+03  0.17170596885E+03 0.  0.
       24    2    4    4    0    0  0.32712874639E+02 -0.28501648041E+02  0.26144298937E+02  0.94552161866E+02  0.79838028774E+02 0.  0.
      -11    1    5    5    0    0  0.46552642522E+02  0.11868253202E+02  0.11152513728E+02  0.49319190206E+02  0.51099999109E-03 0.  1.
       12    1    5    5    0    0 -0.13839767883E+02 -0.40369901244E+02  0.14991785209E+02  0.45232971660E+02  0.00000000000E+00 0. -1.
        5    1    4    4  501    0  0.49263662574E+02 -0.19875450476E+02 -0.10356015007E+03  0.11648492033E+03  0.46999998093E+01 0. -1.
        5    1    3    3  502    0 -0.78252202503E+01 -0.46239539513E+01 -0.26120510814E+03  0.26140545812E+03  0.46999998093E+01 0. -1.
       -5    1    3    3    0  502 -0.74151316963E+02  0.53001052469E+02 -0.11888684426E+03  0.14987895485E+03  0.46999998093E+01 0. -1.
</event>
<event>
10   0  0.1583500E-03  0.1916250E+03  0.7818609E-02  0.1173784E+00
        2   -1    0    0  503    0  0.00000000000E+00  0.00000000000E+00  0.15489199490E+04  0.15489199490E+04  0.00000000000E+00 0.  1.
       21   -1    0    0  501  503  0.00000000000E+00  0.00000000000E+00 -0.24818276205E+02  0.24818276205E+02  0.25500000920E-02 0.  1.
       25    2    1    2    0    0 -0.30508054145E+01 -0.36086005116E+02  0.11081907418E+04  0.11158058555E+04  0.12499791906E+03 0.  0.
        6    2    1    2  501    0  0.30508054145E+01  0.36086005116E+02  0.41591093099E+03  0.45793236971E+03  0.18817185106E+03 0.  0.
       24    2    4    4    0    0  0.33758432736E+01  0.52660270431E+02  0.86424585764E+02  0.12799577942E+03  0.78289272098E+02 0.  0.
      -11    1    5    5    0    0 -0.63339186343E+01 -0.20059559151E+02  0.18434390412E+02  0.27970183924E+02  0.51099999109E-03 0.  1.
       12    1    5    5    0    0  0.97097619079E+01  0.72719829582E+02  0.67990195352E+02  0.10002559550E+03  0.00000000000E+00 0. -1.
        5    1    4    4  501    0 -0.32503785914E+00 -0.16574265315E+02  0.32948634523E+03  0.32993659029E+03  0.46999998093E+01 0. -1.
        5    1    3    3  502    0  0.25671309994E+02 -0.76195852799E+02  0.67247501999E+03  0.67728101011E+03  0.46999998093E+01 0.  1.
       -5    1    3    3    0  502 -0.28722115408E+02  0.40109847682E+02  0.43571572182E+03  0.43852484540E+03  0.46999998093E+01 0.  1.
</event>
<event>
10   0  0.1583500E-03  0.1729117E+03  0.7818609E-02  0.1186541E+00
        2   -1    0    0  503    0  0.00000000000E+00  0.00000000000E+00  0.65647714202E+03  0.65647714202E+03  0.00000000000E+00 0. -1.
       21   -1    0    0  501  503  0.00000000000E+00  0.00000000000E+00 -0.38422300474E+02  0.38422300474E+02  0.25500000920E-02 0.  1.
       25    2    1    2    0    0  0.45009904818E+02 -0.56391714706E+01  0.36448728684E+03  0.38798744246E+03  0.12500232579E+03 0.  0.
        6    2    1    2  501    0 -0.45009904818E+02  0.56391714706E+01  0.25356755470E+03  0.30691200003E+03  0.16685556383E+03 0.  0.
       24    2    4    4    0    0  0.30456685343E+02  0.11605500504E+02  0.16881481878E+03  0.19317581601E+03  0.88069038406E+02 0.  0.
      -11    1    5    5    0    0  0.51486838104E+01  0.25895076451E+02  0.50858859537E+01  0.26887360703E+02  0.51099999109E-03 0.  1.
       12    1    5    5    0    0  0.25308001532E+02 -0.14289575947E+02  0.16372893283E+03  0.16628845531E+03  0.00000000000E+00 0. -1.
        5    1    4    4  501    0 -0.75466590161E+02 -0.59663290333E+01  0.84752735915E+02  0.11373618402E+03  0.46999998093E+01 0. -1.
        5    1    3    3  502    0  0.77979855663E+02 -0.10349427061E+02  0.13716804226E+03  0.15819333217E+03  0.46999998093E+01 0.  1.
       -5    1    3    3    0  502 -0.32969950844E+02  0.47102555905E+01  0.22731924459E+03  0.22979411029E+03  0.46999998093E+01 0.  1.
</event>
<event>
10   0  0.1583500E-03  0.1874350E+03  0.7818609E-02  0.1171746E+00
        2   -1    0    0  503    0  0.00000000000E+00  0.00000000000E+00  0.11801214071E+04  0.11801214071E+04  0.00000000000E+00 0.  1.
       21   -1    0    0  501  503  0.00000000000E+00  0.00000000000E+00 -0.67071526787E+02  0.67071526787E+02  0.25500000920E-02 0.  1.
       25    2    1    2    0    0 -0.21223722403E+02  0.71701240853E+02  0.10332678846E+04  0.10434847341E+04  0.12500541838E+03 0.  0.
        6    2    1    2  501    0  0.21223722403E+02 -0.71701240853E+02  0.79781995737E+02  0.20370819981E+03  0.17187306216E+03 0.  0.
       24    2    4    4    0    0 -0.44927548019E+02 -0.85518859200E+01  0.61280705228E+02  0.11028326013E+03  0.79469826393E+02 0.  0.
      -15    1    5    5    0    0 -0.41054918964E+01  0.18886969459E+02 -0.11410102386E+02  0.22514902717E+02  0.17769999504E+01 0.  1.
       16    1    5    5    0    0 -0.40822056122E+02 -0.27438855379E+02  0.72690807614E+02  0.87768357409E+02  0.00000000000E+00 0. -1.
        5    1    4    4  501    0  0.66151270421E+02 -0.63149354933E+02  0.18501290509E+02  0.93424939687E+02  0.46999998093E+01 0. -1.
        5    1    3    3  502    0 -0.60419602149E+02  0.84434173133E+00  0.56526622841E+03  0.56850614791E+03  0.46999998093E+01 0.  1.
       -5    1    3    3    0  502  0.39195879746E+02  0.70856899122E+02  0.46800165619E+03  0.47497858619E+03  0.46999998093E+01 0.  1.
</event>
<event>
10   0  0.1583500E-03  0.2975531E+03  0.7818609E-02  0.1090149E+00
       -2   -1    0    0    0  501  0.00000000000E+00  0.00000000000E+00  0.48122542595E+03  0.48122542595E+03  0.00000000000E+00 0.  1.
       21   -1    0    0  501  503  0.00000000000E+00  0.00000000000E+00 -0.22531912421E+03  0.22531912421E+03  0.25500000920E-02 0.  1.
       25    2    1    2    0    0 -0.16494100718E+03  0.17324729746E+03  0.30245882875E+03  0.40537185672E+03  0.12499934883E+03 0.  0.
       -6    2    1    2    0  503  0.16494100718E+03 -0.17324729746E+03 -0.46552527012E+02  0.30117269344E+03  0.17696805242E+03 0.  0.
      -24    2    4    4    0    0  0.65708959192E+02 -0.67641187606E+00  0.67855350337E+00  0.96525253037E+02  0.70700347863E+02 0.  0.
       11    1    5    5    0    0 -0.10495488321E+02  0.21770035965E+01 -0.15231807717E+02  0.18625321107E+02  0.51099999109E-03 0. -1.
      -12    1    5    5    0    0  0.76204447513E+02 -0.28534154725E+01  0.15910361220E+02  0.77899931930E+02  0.00000000000E+00 0.  1.
       -5    1    4    4    0  503  0.99232047989E+02 -0.17257088558E+03 -0.47231080516E+02  0.20464744040E+03  0.46999998093E+01 0.  1.
        5    1    3    3  502    0 -0.26891395667E+02  0.80625823360E+01 -0.60972628842E+01  0.29110462170E+02  0.46999998093E+01 0.  1.
       -5    1    3    3    0  502 -0.13804961151E+03  0.16518471512E+03  0.30855609163E+03  0.37626139455E+03  0.46999998093E+01 0.  1.
</event>
<event>
10   0  0.1583500E-03  0.1773230E+03  0.7818609E-02  0.1182072E+00
        2   -1    0    0  503    0  0.00000000000E+00  0.00000000000E+00  0.11283208781E+04  0.11283208781E+04  0.00000000000E+00 0.  1.
       21   -1    0    0  501  503  0.00000000000E+00  0.00000000000E+00 -0.21837105661E+02  0.21837105661E+02  0.25500000920E-02 0. -1.
       25    2    1    2    0    0 -0.39206199761E+02 -0.37358064844E+02  0.45257826816E+03  0.47263613665E+03  0.12500031098E+03 0.  0.
        6    2    1    2  501    0  0.39206199761E+02  0.37358064844E+02  0.65390550431E+03  0.67752184714E+03  0.16885109916E+03 0.  0.
       24    2    4    4    0    0  0.81523202106E+02  0.12653347468E+02  0.55874532398E+03  0.57038361090E+03  0.79592630479E+02 0.  0.
      -15    1    5    5    0    0  0.64081912830E+02  0.26038114695E+01  0.17980551143E+03  0.19090953632E+03  0.17769999504E+01 0.  1.
       16    1    5    5    0    0  0.17441289276E+02  0.10049535998E+02  0.37893981255E+03  0.37947407458E+03  0.00000000000E+00 0. -1.
        5    1    4    4  501    0 -0.42317002345E+02  0.24704717376E+02  0.95160180326E+02  0.10713823625E+03  0.46999998093E+01 0. -1.
        5    1    3    3  502    0  0.31996142400E+02  0.22790260656E+02  0.18694691628E+03  0.19108738476E+03  0.46999998093E+01 0.  1.
       -5    1    3    3    0  502 -0.71202342162E+02 -0.60148325500E+02  0.26563135188E+03  0.28154875189E+03  0.46999998093E+01 0.  1.
</event>
<event>
10   0  0.1583500E-03  0.1946688E+03  0.7818609E-02  0.1163716E+00
       21   -1    0    0  501  503  0.00000000000E+00  0.00000000000E+00  0.18104321227E+03  0.18104321227E+03  0.00000000000E+00 0.  1.
        2   -1    0    0  503    0  0.00000000000E+00  0.00000000000E+00 -0.17445042038E+03  0.17445042040E+03  0.25500000920E-02 0.  1.
       25    2    1    2    0    0  0.56823267838E+02  0.74761515838E+02 -0.24814559892E+02  0.15830748240E+03  0.12500931399E+03 0.  0.
        6    2    1    2  501    0 -0.56823267838E+02 -0.74761515838E+02  0.31407351777E+02  0.19718615026E+03  0.17052210441E+03 0.  0.
       24    2    4    4    0    0  0.85158807875E+01 -0.90916247226E+02  0.44090762416E+02  0.12853384810E+03  0.78985255210E+02 0.  0.
      -13    1    5    5    0    0 -0.30900629708E+02 -0.61507202206E+02  0.12161707273E+02  0.69899235528E+02  0.10565999895E+00 0.  1.
       14    1    5    5    0    0  0.39416510496E+02 -0.29409045021E+02  0.31929055143E+02  0.58634612568E+02  0.00000000000E+00 0. -1.
        5    1    4    4  501    0 -0.65339148626E+02  0.16154731388E+02 -0.12683410639E+02  0.68652302168E+02  0.46999998093E+01 0. -1.
        5    1    3    3  502    0  0.19670463836E+02 -0.30623605416E+02 -0.28406701391E+02  0.46408652624E+02  0.46999998093E+01 0.  1.
       -5    1    3    3    0  502  0.37152804002E+02  0.10538512125E+03  0.35921414992E+01  0.11189882978E+03  0.46999998093E+01 0.  1.
</event>
<event>
10   0  0.1583500E-03  0.1896562E+03  0.7818609E-02  0.1169166E+00
        2   -1    0    0  503    0  0.00000000000E+00  0.00000000000E+00  0.16869789507E+03  0.16869789509E+03  0.00000000000E+00 0.  1.
       21   -1    0    0  501  503  0.00000000000E+00  0.00000000000E+00 -0.49077742507E+03  0.49077742507E+03  0.25500000920E-02 0.  1.
       25    2    1    2    0    0  0.26217481418E+02  0.77019613214E+02  0.11150894325E+03  0.18622229601E+03  0.12500048782E+03 0.  0.
        6    2    1    2  501    0 -0.26217481418E+02 -0.77019613214E+02 -0.43358847325E+03  0.47325302416E+03  0.17131866094E+03 0.  0.
       24    2    4    4    0    0 -0.41389159443E+02  0.57966967976E+01 -0.12886773137E+03  0.15707974644E+03  0.79501511543E+02 0.  0.
      -11    1    5    5    0    0 -0.33666091822E+02 -0.15319985698E+02 -0.12940630904E+03  0.13458863443E+03  0.51099999109E-03 0.  1.
       12    1    5    5    0    0 -0.77230676210E+01  0.21116682496E+02  0.53857766281E+00  0.22491112000E+02  0.00000000000E+00 0. -1.
        5    1    4    4  501    0  0.15171678025E+02 -0.82816310012E+02 -0.30472074187E+03  0.31617327772E+03  0.46999998093E+01 0. -1.
        5    1    3    3  502    0  0.75991397708E+02  0.39260089548E+02  0.54612758880E+02  0.10159079972E+03  0.46999998093E+01 0.  1.
       -5    1    3    3    0  502 -0.49773916290E+02  0.37759523666E+02  0.56896184367E+02  0.84631496289E+02  0.46999998093E+01 0.  1.
</event>
<event>
10   0  0.1583500E-03  0.1883041E+03  0.7818609E-02  0.1170715E+00
       21   -1    0    0  501  503  0.00000000000E+00  0.00000000000E+00  0.28651661949E+02  0.28651661949E+02  0.00000000000E+00 0.  1.
        2   -1    0    0  503    0  0.00000000000E+00  0.00000000000E+00 -0.21623192914E+04  0.21623192914E+04  0.25500000920E-02 0.  1.
       25    2    1    2    0    0 -0.74610957795E+02  0.20979751572E+02 -0.18140862465E+04  0.18200387818E+04  0.12500124986E+03 0.  0.
        6    2    1    2  501    0  0.74610957795E+02 -0.20979751572E+02 -0.31958138299E+03  0.37093217161E+03  0.17161430761E+03 0.  0.
       24    2    4    4    0    0  0.54961051795E+02 -0.10742439654E+02 -0.69867526606E+02  0.12019322084E+03  0.80179934135E+02 0.  0.
      -13    1    5    5    0    0  0.27398966980E+02 -0.43008496045E+02 -0.20158063326E+02  0.54834230228E+02  0.10565999895E+00 0.  1.
       14    1    5    5    0    0  0.27562084815E+02  0.32266056391E+02 -0.49709463279E+02  0.65358990612E+02  0.00000000000E+00 0. -1.
        5    1    4    4  501    0  0.19649906000E+02 -0.10237311918E+02 -0.24971385639E+03  0.25073895077E+03  0.46999998093E+01 0. -1.
        5    1    3    3  502    0 -0.44857676117E+02 -0.23406643116E+02 -0.15351837471E+04  0.15360245146E+04  0.46999998093E+01 0. -1.
       -5    1    3    3    0  502 -0.29753281678E+02  0.44386394689E+02 -0.27890249939E+03  0.28401426720E+03  0.46999998093E+01 0. -1.
</event>
<event>
10   0  0.1583500E-03  0.2019775E+03  0.7818609E-02  0.1156846E+00
       21   -1    0    0  501  503  0.00000000000E+00  0.00000000000E+00  0.18248117342E+03  0.18248117342E+03  0.00000000000E+00 0. -1.
        2   -1    0    0  503    0  0.00000000000E+00  0.00000000000E+00 -0.20053563530E+03  0.20053563532E+03  0.25500000920E-02 0.  1.
       25    2    1    2    0    0 -0.32131835036E+02 -0.10158809429E+03 -0.63317348141E+02  0.17602973927E+03  0.12499914723E+03 0.  0.
        6    2    1    2  501    0  0.32131835036E+02  0.10158809429E+03  0.45262886259E+02  0.20698706947E+03  0.17158765204E+03 0.  0.
       24    2    4    4    0    0  0.50188389236E+02  0.61589708261E+01  0.52476071374E+02  0.10948385521E+03  0.81707827949E+02 0.  0.
      -13    1    5    5    0    0  0.24460252816E+02 -0.62400699947E+01 -0.19597419891E+02  0.31957979783E+02  0.10565999895E+00 0.  1.
       14    1    5    5    0    0  0.25728136419E+02  0.12399040821E+02  0.72073491265E+02  0.77525875422E+02  0.00000000000E+00 0. -1.
        5    1    4    4  501    0 -0.18056554199E+02  0.95429123460E+02 -0.72131851144E+01  0.97503214262E+02  0.46999998093E+01 0. -1.
        5    1    3    3  502    0 -0.26852402819E+02 -0.95978922916E+02 -0.98202875608E+02  0.13999607122E+03  0.46999998093E+01 0. -1.
       -5    1    3    3    0  502 -0.52794322171E+01 -0.56091713701E+01  0.34885527468E+02  0.36033668047E+02  0.46999998093E+01 0. -1.
</event>
<event>
10   0  0.1583500E-03  0.2487903E+03  0.7818609E-02  0.1119194E+00
       21   -1    0    0  501  503  0.00000000000E+00  0.00000000000E+00  0.30504878669E+02  0.30504878669E+02  0.00000000000E+00 0. -1.
        2   -1    0    0  503    0  0.00000000000E+00  0.00000000000E+00 -0.34833232148E+04  0.34833232148E+04  0.25500000920E-02 0.  1.
       25    2    1    2    0    0  0.13267370824E+03  0.12084692357E+03 -0.28925359620E+04  0.29007922400E+04  0.12500014570E+03 0.  0.
        6    2    1    2  501    0 -0.13267370824E+03 -0.12084692357E+03 -0.56028237418E+03  0.61303585352E+03  0.17230881312E+03 0.  0.
       24    2    4    4    0    0 -0.98522061021E+01 -0.43001604362E+02 -0.13073405700E+03  0.15951753867E+03  0.80051530527E+02 0.  0.
      -15    1    5    5    0    0  0.22294556930E+02  0.72060139080E+01 -0.72363442726E+02  0.76082846142E+02  0.17769999504E+01 0.  1.
       16    1    5    5    0    0 -0.32146763032E+02 -0.50207618270E+02 -0.58370614273E+02  0.83434692523E+02  0.00000000000E+00 0. -1.
        5    1    4    4  501    0 -0.12282150214E+03 -0.77845319204E+02 -0.42954831719E+03  0.45351831485E+03  0.46999998093E+01 0. -1.
        5    1    3    3  502    0  0.35443459121E+02  0.10426494348E+03 -0.19460756505E+04  0.19491946914E+04  0.46999998093E+01 0.  1.
       -5    1    3    3    0  502  0.97230249121E+02  0.16581980084E+02 -0.94646031144E+03  0.95159754861E+03  0.46999998093E+01 0.  1.
</event>
<event>
10   0  0.1583500E-03  0.2672929E+03  0.7818609E-02  0.1106969E+00
        2   -1    0    0  503    0  0.00000000000E+00  0.00000000000E+00  0.31497098761E+03  0.31497098762E+03  0.00000000000E+00 0.  1.
       21   -1    0    0  501  503  0.00000000000E+00  0.00000000000E+00 -0.23682411889E+03  0.23682411889E+03  0.25500000920E-02 0. -1.
       25    2    1    2    0    0 -0.19153588676E+03  0.73912135861E+02  0.13900359299E+03  0.27766187471E+03  0.12500047222E+03 0.  0.
        6    2    1    2  501    0  0.19153588676E+03 -0.73912135861E+02 -0.60856724272E+02  0.27413323180E+03  0.17116216913E+03 0.  0.
       24    2    4    4    0    0  0.74044279640E+02 -0.91714959344E+02 -0.61035299112E+02  0.15520745598E+03  0.80435424644E+02 0.  0.
      -15    1    5    5    0    0  0.21151600689E+02 -0.44216312084E+02  0.14829470061E+02  0.51240056374E+02  0.17769999504E+01 0.  1.
       16    1    5    5    0    0  0.52892678951E+02 -0.47498647259E+02 -0.75864769174E+02  0.10396739960E+03  0.00000000000E+00 0. -1.
        5    1    4    4  501    0  0.11749160712E+03  0.17802823483E+02  0.17857484005E+00  0.11892577583E+03  0.46999998093E+01 0. -1.
        5    1    3    3  502    0 -0.24246577683E+02 -0.23243824060E+02 -0.77579263863E+01  0.34791483243E+02  0.46999998093E+01 0.  1.
       -5    1    3    3    0  502 -0.16728930908E+03  0.97155959920E+02  0.14676151938E+03  0.24287039146E+03  0.46999998093E+01 0.  1.
</event>
<event>
10   0  0.1583500E-03  0.3350213E+03  0.7818609E-02  0.1072011E+00
        2   -1    0    0  503    0  0.00000000000E+00  0.00000000000E+00  0.48789461775E+03  0.48789461776E+03  0.00000000000E+00 0.  1.
       21   -1    0    0  501  503  0.00000000000E+00  0.00000000000E+00 -0.32430673940E+03  0.32430673940E+03  0.25500000920E-02 0. -1.
       25    2    1    2    0    0 -0.10102106622E+03  0.26266582057E+03  0.31857355445E+03  0.44306750605E+03  0.12498446386E+03 0.  0.
        6    2    1    2  501    0  0.10102106622E+03 -0.26266582057E+03 -0.15498567610E+03  0.36913385111E+03  0.18177087534E+03 0.  0.
       24    2    4    4    0    0 -0.31792589960E+01 -0.19491406483E+03 -0.95810112869E+02  0.23139552869E+03  0.79766613393E+02 0.  0.
      -11    1    5    5    0    0 -0.37223586328E+02 -0.59837751633E+02 -0.42167871597E+02  0.82123573321E+02  0.51099999109E-03 0.  1.
       12    1    5    5    0    0  0.34044327332E+02 -0.13507631320E+03 -0.53642241272E+02  0.14927195537E+03  0.00000000000E+00 0. -1.
        5    1    4    4  501    0  0.10420032522E+03 -0.67751755738E+02 -0.59175563235E+02  0.13773832242E+03  0.46999998093E+01 0. -1.
        5    1    3    3  502    0  0.28834687541E+02  0.33709629681E+02  0.49300429747E+02  0.66486094112E+02  0.46999998093E+01 0.  1.
       -5    1    3    3    0  502 -0.12985575376E+03  0.22895619089E+03  0.26927312470E+03  0.37658141194E+03  0.46999998093E+01 0.  1.
</event>
<event>
10   0  0.1583500E-03  0.1906377E+03  0.7818609E-02  0.1168908E+00
        2   -1    0    0  503    0  0.00000000000E+00  0.00000000000E+00  0.36300983668E+03  0.36300983669E+03  0.00000000000E+00 0.  1.
       21   -1    0    0  501  503  0.00000000000E+00  0.00000000000E+00 -0.40154013561E+03  0.40154013561E+03  0.25500000920E-02 0.  1.
       25    2    1    2    0    0 -0.78054140161E+02  0.10291457746E+02  0.32336695655E+03  0.35551163378E+03  0.12499588097E+03 0.  0.
        6    2    1    2  501    0  0.78054140161E+02 -0.10291457746E+02 -0.36189725548E+03  0.40903833852E+03  0.17362135800E+03 0.  0.
       24    2    4    4    0    0  0.37434351274E+02  0.21545852202E+02 -0.77732978921E+02  0.12018715257E+03  0.80851600031E+02 0.  0.
      -13    1    5    5    0    0  0.38757439779E+02 -0.13304910016E+02 -0.73422275706E+01  0.41630268297E+02  0.10565999895E+00 0.  1.
       14    1    5    5    0    0 -0.13230885052E+01  0.34850762218E+02 -0.70390751350E+02  0.78556884269E+02  0.00000000000E+00 0. -1.
        5    1    4    4  501    0  0.40619788887E+02 -0.31837309948E+02 -0.28416427656E+03  0.28885118595E+03  0.46999998093E+01 0. -1.
        5    1    3    3  502    0  0.95081358288E+01  0.49269080144E+01  0.21804933519E+03  0.21836272952E+03  0.46999998093E+01 0. -1.
       -5    1    3    3    0  502 -0.87562275989E+02  0.53645497320E+01  0.10531762137E+03  0.13714890426E+03  0.46999998093E+01 0. -1.
</event>
<event>
10   0  0.1583500E-03  0.3921290E+03  0.7818609E-02  0.1048244E+00
       21   -1    0    0  501  503  0.00000000000E+00  0.00000000000E+00  0.14536695284E+03  0.14536695284E+03  0.00000000000E+00 0. -1.
        2   -1    0    0  503    0  0.00000000000E+00  0.00000000000E+00 -0.10356294806E+04  0.10356294806E+04  0.25500000920E-02 0.  1.
       25    2    1    2    0    0  0.19160810424E+03 -0.29511668460E+03 -0.33797860303E+03  0.50366144135E+03  0.12505114255E+03 0.  0.
        6    2    1    2  501    0 -0.19160810424E+03  0.29511668460E+03 -0.55228392471E+03  0.67733499208E+03  0.17308273995E+03 0.  0.
       24    2    4    4    0    0 -0.95744301760E+02  0.15008460931E+03 -0.40432297635E+03  0.44899598156E+03  0.80174565675E+02 0.  0.
      -11    1    5    5    0    0 -0.91982357782E+02  0.71341635650E+02 -0.24269795828E+03  0.26917035883E+03  0.51099999109E-03 0.  1.
       12    1    5    5    0    0 -0.37619439788E+01  0.78742973660E+02 -0.16162501807E+03  0.17982562273E+03  0.00000000000E+00 0. -1.
        5    1    4    4  501    0 -0.95863802475E+02  0.14503207529E+03 -0.14796094836E+03  0.22833901052E+03  0.46999998093E+01 0. -1.
        5    1    3    3  502    0  0.22330309981E+02 -0.12710483976E+03 -0.16228825899E+03  0.20739781107E+03  0.46999998093E+01 0.  1.
       -5    1    3    3    0  502  0.16927779425E+03 -0.16801184485E+03 -0.17569034404E+03  0.29626363027E+03  0.46999998093E+01 0.  1.
</event>
<event>
10   0  0.1583500E-03  0.2062617E+03  0.7818609E-02  0.1152428E+00
       21   -1    0    0  501  503  0.00000000000E+00  0.00000000000E+00  0.26227336471E+03  0.26227336471E+03  0.00000000000E+00 0. -1.
        4   -1    0    0  503    0  0.00000000000E+00  0.00000000000E+00 -0.17592949058E+03  0.17593407446E+03  0.12699999809E+01 0.  1.
       25    2    1    2    0    0 -0.91538989160E+02 -0.72599989416E+02 -0.64309195111E+02  0.18278575533E+03  0.12499925911E+03 0.  0.
        6    2    1    2  501    0  0.91538989160E+02  0.72599989416E+02  0.15065306924E+03  0.25542168383E+03  0.16998159988E+03 0.  0.
       24    2    4    4    0    0 -0.48851707467E+00  0.18046776337E+02  0.10418451671E+03  0.13868894920E+03  0.89745675790E+02 0.  0.
      -13    1    5    5    0    0  0.22257854303E+02 -0.19209926948E+02  0.43409611712E+01  0.29720169573E+02  0.10565999895E+00 0.  1.
       14    1    5    5    0    0 -0.22746371378E+02  0.37256703285E+02  0.99843555543E+02  0.10896877963E+03  0.00000000000E+00 0. -1.
        5    1    4    4  501    0  0.92027506235E+02  0.54553213079E+02  0.46468552528E+02  0.11673273463E+03  0.46999998093E+01 0. -1.
        5    1    3    3  502    0 -0.80440142433E+02  0.33549240809E+01  0.28304474777E+01  0.80696799574E+02  0.46999998093E+01 0.  1.
       -5    1    3    3    0  502 -0.11098846727E+02 -0.75954913497E+02 -0.67139642589E+02  0.10208895576E+03  0.46999998093E+01 0.  1.
</event>
<event>
10   0  0.1583500E-03  0.1949076E+03  0.7818609E-02  0.1164231E+00
       21   -1    0    0  501  503  0.00000000000E+00  0.00000000000E+00  0.95766731417E+03  0.95766731417E+03  0.00000000000E+00 0. -1.
       -4   -1    0    0    0  501  0.00000000000E+00  0.00000000000E+00 -0.60686443999E+02  0.60699731344E+02  0.12699999809E+01 0. -1.
       25    2    1    2    0    0 -0.12451607605E+02 -0.88976435055E+02  0.70670969228E+02  0.16938115864E+03  0.12499496983E+03 0.  0.
       -6    2    1    2    0  503  0.12451607605E+02  0.88976435055E+02  0.82630990094E+03  0.84898588687E+03  0.17296570523E+03 0.  0.
      -24    2    4    4    0    0 -0.14449628298E+02  0.11831362821E+03  0.50057093225E+03  0.52079034590E+03  0.80277143591E+02 0.  0.
       11    1    5    5    0    0 -0.42244538993E+02  0.59201916721E+02  0.19043765451E+03  0.20385281031E+03  0.51099999109E-03 0. -1.
      -12    1    5    5    0    0  0.27794910695E+02  0.59111711492E+02  0.31013327775E+03  0.31693753558E+03  0.00000000000E+00 0.  1.
       -5    1    4    4    0  503  0.26901235903E+02 -0.29337193159E+02  0.32573896869E+03  0.32819554098E+03  0.46999998093E+01 0.  1.
        5    1    3    3  502    0  0.37476805289E+02  0.61548106822E+01 -0.39730462441E+01  0.38474247542E+02  0.46999998093E+01 0.  1.
       -5    1    3    3    0  502 -0.49928412894E+02 -0.95131245737E+02  0.74644015472E+02  0.13090691110E+03  0.46999998093E+01 0.  1.
</event>
<event>
10   0  0.1583500E-03  0.1893912E+03  0.7818609E-02  0.1170019E+00
       -4   -1    0    0    0  501  0.00000000000E+00  0.00000000000E+00  0.39929969085E+02  0.39950160589E+02  0.00000000000E+00 0. -1.
       21   -1    0    0  501  503  0.00000000000E+00  0.00000000000E+00 -0.14643351192E+04  0.14643351192E+04  0.12699999809E+01 0. -1.
       25    2    1    2    0    0  0.57806815229E+02 -0.51058353638E+02 -0.13014843586E+03  0.19624496976E+03  0.12499955774E+03 0.  0.
       -6    2    1    2    0  503 -0.57806815229E+02  0.51058353638E+02 -0.12942567143E+04  0.13080403101E+04  0.17297522052E+03 0.  0.
      -24    2    4    4    0    0 -0.10325173420E+03  0.15978549923E+02 -0.88590963787E+03  0.89565061802E+03  0.80236577782E+02 0.  0.
       15    1    5    5    0    0 -0.32828767053E+02  0.42100837425E+02 -0.27491903574E+03  0.28006042634E+03  0.17769999504E+01 0. -1.
      -16    1    5    5    0    0 -0.70422967147E+02 -0.26122287502E+02 -0.61099060213E+03  0.61559019168E+03  0.00000000000E+00 0.  1.
       -5    1    4    4    0  503  0.45444918971E+02  0.35079803716E+02 -0.40834707643E+03  0.41238969206E+03  0.46999998093E+01 0.  1.
        5    1    3    3  502    0  0.12513679759E+02 -0.87521187933E+02 -0.77519597728E+02  0.11767722188E+03  0.46999998093E+01 0.  1.
       -5    1    3    3    0  502  0.45293135470E+02  0.36462834295E+02 -0.52628838132E+02  0.78567747880E+02  0.46999998093E+01 0.  1.
</event>
<event>
10   0  0.1583500E-03  0.2285680E+03  0.7818609E-02  0.1133113E+00
        2   -1    0    0  503    0  0.00000000000E+00  0.00000000000E+00  0.94079232170E+03  0.94079232171E+03  0.00000000000E+00 0. -1.
       21   -1    0    0  501  503  0.00000000000E+00  0.00000000000E+00 -0.60990882860E+02  0.60990882860E+02  0.25500000920E-02 0.  1.
       25    2    1    2    0    0  0.69925241448E+02  0.13941130574E+03  0.19266870837E+03  0.27763218155E+03  0.12503337750E+03 0.  0.
        6    2    1    2  501    0 -0.69925241448E+02 -0.13941130574E+03  0.68713273048E+03  0.72415102301E+03  0.16708759165E+03 0.  0.
       24    2    4    4    0    0 -0.88537294676E+02 -0.15525252950E+03  0.53404680159E+03  0.56905510264E+03  0.81703874398E+02 0.  0.
      -13    1    5    5    0    0 -0.57164412413E+02 -0.15083644306E+03  0.48032619381E+03  0.50668793772E+03  0.10565999895E+00 0.  1.
       14    1    5    5    0    0 -0.31372882263E+02 -0.44160864381E+01  0.53720607775E+02  0.62367164924E+02  0.00000000000E+00 0. -1.
        5    1    4    4  501    0  0.18612053228E+02  0.15841223750E+02  0.15308592889E+03  0.15509592038E+03  0.46999998093E+01 0. -1.
        5    1    3    3  502    0  0.58174552600E+01 -0.22108679423E+02  0.39798420731E+02  0.46137195216E+02  0.46999998093E+01 0. -1.
       -5    1    3    3    0  502  0.64107786188E+02  0.16151998517E+03  0.15287028764E+03  0.23149498634E+03  0.46999998093E+01 0. -1.
</event>
<event>
10   0  0.1583500E-03  0.1869695E+03  0.7818609E-02  0.1172384E+00
       -2   -1    0    0    0  501  0.00000000000E+00  0.00000000000E+00  0.71596210157E+03  0.71596210158E+03  0.00000000000E+00 0.  1.
       21   -1    0    0  501  503  0.00000000000E+00  0.00000000000E+00 -0.10243518218E+03  0.10243518218E+03  0.25500000920E-02 0. -1.
       25    2    1    2    0    0  0.40260858601E+02 -0.60612129721E+02  0.61463590180E+03  0.63142444866E+03  0.12499910231E+03 0.  0.
       -6    2    1    2    0  503 -0.40260858601E+02  0.60612129721E+02 -0.11089824076E+01  0.18697283510E+03  0.17222904580E+03 0.  0.
      -24    2    4    4    0    0 -0.41593163182E+02  0.92455979168E+02  0.36574793235E+02  0.13739498997E+03  0.85214837090E+02 0.  0.
       13    1    5    5    0    0 -0.65728789655E+02  0.62618079180E+02  0.11393747546E+02  0.91493859230E+02  0.10565999895E+00 0. -1.
      -14    1    5    5    0    0  0.24135626472E+02  0.29837899988E+02  0.25181045689E+02  0.45901130736E+02  0.00000000000E+00 0.  1.
       -5    1    4    4    0  503  0.13323045813E+01 -0.31843849447E+02 -0.37683775643E+02  0.49577845132E+02  0.46999998093E+01 0.  1.
        5    1    3    3  502    0  0.10093854989E+01 -0.42307918774E+02  0.55967464006E+03  0.56129205550E+03  0.46999998093E+01 0.  1.
       -5    1    3    3    0  502  0.39251473102E+02 -0.18304210947E+02  0.54961261744E+02  0.70132393156E+02  0.46999998093E+01 0.  1.
</event>
<event>
10   0  0.1583500E-03  0.2305158E+03  0.7818609E-02  0.1132459E+00
       -2   -1    0    0    0  501  0.00000000000E+00  0.00000000000E+00  0.20186741376E+03  0.20186741377E+03  0.00000000000E+00 0.  1.
       21   -1    0    0  501  503  0.00000000000E+00  0.00000000000E+00 -0.31462878727E+03  0.31462878727E+03  0.25500000920E-02 0. -1.
       25    2    1    2    0    0  0.13762156671E+03  0.68143954903E+02  0.82386632591E+02  0.21446925775E+03  0.12500484422E+03 0.  0.
       -6    2    1    2    0  503 -0.13762156671E+03 -0.68143954903E+02 -0.19514800610E+03  0.30202694329E+03  0.17191345490E+03 0.  0.
      -24    2    4    4    0    0 -0.78964897128E+02 -0.23620017961E+02 -0.25857809139E+02  0.11735359212E+03  0.79434747201E+02 0.  0.
       11    1    5    5    0    0 -0.48254348573E+02 -0.53007995142E+02 -0.20188400327E+02  0.74470807792E+02  0.51099999109E-03 0. -1.
      -12    1    5    5    0    0 -0.30710548555E+02  0.29387977181E+02 -0.56694088122E+01  0.42882784327E+02  0.00000000000E+00 0.  1.
       -5    1    4    4    0  503 -0.58656669579E+02 -0.44523936942E+02 -0.16929019696E+03  0.18467335117E+03  0.46999998093E+01 0.  1.
        5    1    3    3  502    0  0.12767301752E+02  0.18350403969E+02  0.76503614312E+02  0.79841307109E+02  0.46999998093E+01 0. -1.
       -5    1    3    3    0  502  0.12485426496E+03  0.49793550934E+02  0.58830182787E+01  0.13462795064E+03  0.46999998093E+01 0. -1.
</event>
<event>
10   0  0.1583500E-03  0.2447355E+03  0.7818609E-02  0.1121735E+00
        4   -1    0    0  503    0  0.00000000000E+00  0.00000000000E+00  0.28527475132E+03  0.28527757823E+03  0.00000000000E+00 0.  1.
       21   -1    0    0  501  503  0.00000000000E+00  0.00000000000E+00 -0.19917729404E+03  0.19917729404E+03  0.12699999809E+01 0.  1.
       25    2    1    2    0    0  0.12320478146E+03  0.12531373427E+03  0.10335251536E+03  0.23911187103E+03  0.12493916226E+03 0.  0.
        6    2    1    2  501    0 -0.12320478146E+03 -0.12531373427E+03 -0.17255058080E+02  0.24534300123E+03  0.17033056407E+03 0.  0.
       24    2    4    4    0    0 -0.52352895828E+02 -0.10370339216E+03  0.43210873984E+02  0.14960786912E+03  0.83786130265E+02 0.  0.
      -13    1    5    5    0    0  0.82457731055E+01 -0.72540701732E+02  0.35029333872E+02  0.80976611299E+02  0.10565999895E+00 0.  1.
       14    1    5    5    0    0 -0.60598668934E+02 -0.31162690424E+02  0.81815401122E+01  0.68631257818E+02  0.00000000000E+00 0. -1.
        5    1    4    4  501    0 -0.70851885627E+02 -0.21610342113E+02 -0.60465932064E+02  0.95735132118E+02  0.46999998093E+01 0. -1.
        5    1    3    3  502    0  0.39377346047E+01  0.65434380505E+02  0.80023396532E+02  0.10355190919E+03  0.46999998093E+01 0.  1.
       -5    1    3    3    0  502  0.11926704685E+03  0.59879353765E+02  0.23329118830E+02  0.13555996184E+03  0.46999998093E+01 0.  1.
</event>
<event>
10   0  0.1583500E-03  0.1802960E+03  0.7818609E-02  0.1179438E+00
       21   -1    0    0  501  503  0.00000000000E+00  0.00000000000E+00  0.11006468093E+03  0.11006468093E+03  0.00000000000E+00 0. -1.
        2   -1    0    0  503    0  0.00000000000E+00  0.00000000000E+00 -0.29273982049E+03  0.29273982050E+03  0.25500000920E-02 0. -1.
       25    2    1    2    0    0 -0.50638475255E+02  0.26738673102E+02 -0.17472179409E+03  0.22233316146E+03  0.12500047017E+03 0.  0.
        6    2    1    2  501    0  0.50638475255E+02 -0.26738673102E+02 -0.79533454654E+01  0.18047133997E+03  0.17096033759E+03 0.  0.
       24    2    4    4    0    0  0.51483270609E+02 -0.23837023838E+02 -0.68173369377E+02  0.11999262862E+03  0.80820119858E+02 0.  0.
      -15    1    5    5    0    0 -0.12152839545E+02  0.92130422992E+01 -0.40183359263E+02  0.43016645010E+02  0.17769999504E+01 0.  1.
       16    1    5    5    0    0  0.63636110154E+02 -0.33050066137E+02 -0.27990010114E+02  0.76975983614E+02  0.00000000000E+00 0. -1.
        5    1    4    4  501    0 -0.84479535352E+00 -0.29016492647E+01  0.60220023912E+02  0.60478711344E+02  0.46999998093E+01 0. -1.
        5    1    3    3  502    0 -0.43084306099E+02 -0.28886736194E+02 -0.15356749699E+03  0.16215969626E+03  0.46999998093E+01 0.  1.
       -5    1    3    3    0  502 -0.75541691566E+01  0.55625409297E+02 -0.21154297098E+02  0.60173465207E+02  0.46999998093E+01 0.  1.
</event>
<event>
10   0  0.1583500E-03  0.1872335E+03  0.7818609E-02  0.1174022E+00
       21   -1    0    0  501  503  0.00000000000E+00  0.00000000000E+00  0.14812313350E+03  0.14812313350E+03  0.00000000000E+00 0.  1.
        2   -1    0    0  503    0  0.00000000000E+00  0.00000000000E+00 -0.22846181124E+03  0.22846181125E+03  0.25500000920E-02 0.  1.
       25    2    1    2    0    0 -0.44899962675E+02  0.40162537724E+02 -0.12200845357E+03  0.18477058331E+03  0.12500027852E+03 0.  0.
        6    2    1    2  501    0  0.44899962675E+02 -0.40162537724E+02  0.41669775837E+02  0.19181436145E+03  0.17727758729E+03 0.  0.
       24    2    4    4    0    0  0.81881942805E+02  0.96953697094E+00  0.64488579122E+02  0.13179517948E+03  0.80657299340E+02 0.  0.
      -11    1    5    5    0    0  0.58198035094E+02 -0.37878492380E+02  0.38534024001E+02  0.79414497919E+02  0.51099999109E-03 0.  1.
       12    1    5    5    0    0  0.23683907710E+02  0.38848029351E+02  0.25954555122E+02  0.52380681558E+02  0.00000000000E+00 0. -1.
        5    1    4    4  501    0 -0.36981980130E+02 -0.41132074695E+02 -0.22818803286E+02  0.60019181973E+02  0.46999998093E+01 0. -1.
        5    1    3    3  502    0  0.32471160383E+02 -0.19670358396E+02 -0.19237319995E+02  0.42818964663E+02  0.46999998093E+01 0.  1.
       -5    1    3    3    0  502 -0.77371123057E+02  0.59832896121E+02 -0.10277113358E+03  0.14195161865E+03  0.46999998093E+01 0.  1.
</event>
<event>
10   0  0.1583500E-03  0.1872231E+03  0.7818609E-02  0.1172290E+00
        2   -1    0    0  503    0  0.00000000000E+00  0.00000000000E+00  0.10104575072E+04  0.10104575072E+04  0.00000000000E+00 0. -1.
       21   -1    0    0  501  503  0.00000000000E+00  0.00000000000E+00 -0.60757114015E+02  0.60757114015E+02  0.25500000920E-02 0. -1.
       25    2    1    2    0    0  0.41163699828E+02 -0.59321874293E+02  0.84391479628E+03  0.85617257045E+03  0.12500300817E+03 0.  0.
        6    2    1    2  501    0 -0.41163699828E+02  0.59321874293E+02  0.10578559688E+03  0.21504205075E+03  0.17273956156E+03 0.  0.
       24    2    4    4    0    0 -0.37294824487E+02 -0.28361168073E+02  0.84621362637E+02  0.12463575161E+03  0.78600482034E+02 0.  0.
      -13    1    5    5    0    0 -0.13343861369E+02  0.19723681914E+02  0.61873938276E+02  0.66298398671E+02  0.10565999895E+00 0.  1.
       14    1    5    5    0    0 -0.23950963117E+02 -0.48084849987E+02  0.22747424361E+02  0.58337352936E+02  0.00000000000E+00 0. -1.
        5    1    4    4  501    0 -0.38688753411E+01  0.87683042367E+02  0.21164234244E+02  0.90406299141E+02  0.46999998093E+01 0. -1.
        5    1    3    3  502    0  0.51710126408E+02 -0.26860984558E+02  0.79019002205E+03  0.79234955077E+03  0.46999998093E+01 0. -1.
       -5    1    3    3    0  502 -0.10546426580E+02 -0.32460889736E+02  0.53724774230E+02  0.63823019674E+02  0.46999998093E+01 0. -1.
</event>
<event>
10   0  0.1583500E-03  0.5788604E+03  0.7818609E-02  0.9956650E-01
       21   -1    0    0  501  503  0.00000000000E+00  0.00000000000E+00  0.27021356379E+03  0.27021356379E+03  0.00000000000E+00 0.  1.
        2   -1    0    0  503    0  0.00000000000E+00  0.00000000000E+00 -0.21755533030E+04  0.21755533030E+04  0.25500000920E-02 0. -1.
       25    2    1    2    0    0 -0.36907766803E+03 -0.41217579859E+03 -0.17597125820E+04  0.18488693215E+04  0.12498873090E+03 0.  0.
        6    2    1    2  501    0  0.36907766803E+03  0.41217579859E+03 -0.14562715723E+03  0.59689754529E+03  0.17021221069E+03 0.  0.
       24    2    4    4    0    0  0.21607058508E+03  0.30495774861E+03 -0.45696358153E+02  0.38496564048E+03  0.80153983224E+02 0.  0.
      -13    1    5    5    0    0  0.21382808753E+03  0.25870680985E+03 -0.45131310113E+02  0.33865692197E+03  0.10565999895E+00 0.  1.
       14    1    5    5    0    0  0.22424975584E+01  0.46250938755E+02 -0.56504804009E+00  0.46308718513E+02  0.00000000000E+00 0. -1.
        5    1    4    4  501    0  0.15300708294E+03  0.10721804998E+03 -0.99930799080E+02  0.21193190481E+03  0.46999998093E+01 0. -1.
        5    1    3    3  502    0 -0.81982679687E+02 -0.57868373636E+02 -0.19941122265E+03  0.22328643970E+03  0.46999998093E+01 0. -1.
       -5    1    3    3    0  502 -0.28709498834E+03 -0.35430742496E+03 -0.15603013593E+04  0.16255828818E+04  0.46999998093E+01 0. -1.
</event>
<event>
10   0  0.1583500E-03  0.1870235E+03  0.7818609E-02  0.1172438E+00
       21   -1    0    0  501  503  0.00000000000E+00  0.00000000000E+00  0.27906014203E+02  0.27906014203E+02  0.00000000000E+00 0.  1.
        2   -1    0    0  503    0  0.00000000000E+00  0.00000000000E+00 -0.10362390746E+04  0.10362390746E+04  0.25500000920E-02 0.  1.
       25    2    1    2    0    0  0.65714082610E+02 -0.29921977374E+02 -0.56144839698E+03  0.57970347115E+03  0.12497258340E+03 0.  0.
        6    2    1    2  501    0 -0.65714082610E+02  0.29921977374E+02 -0.44688466341E+03  0.48444161765E+03  0.17252279021E+03 0.  0.
       24    2    4    4    0    0 -0.53998676197E+02  0.31137472267E+02 -0.12172965052E+03  0.15903940411E+03  0.81178969156E+02 0.  0.
      -11    1    5    5    0    0  0.18938017079E+02  0.15122562642E+01 -0.77553593201E+01  0.20520258486E+02  0.51099999109E-03 0.  1.
       12    1    5    5    0    0 -0.72936693276E+02  0.29625216003E+02 -0.11397429120E+03  0.13851914562E+03  0.00000000000E+00 0. -1.
        5    1    4    4  501    0 -0.11715406414E+02 -0.12154948938E+01 -0.32515501288E+03  0.32540221354E+03  0.46999998093E+01 0. -1.
        5    1    3    3  502    0  0.70104705260E+02  0.29273289570E+02 -0.21271658281E+03  0.22592483215E+03  0.46999998093E+01 0.  1.
       -5    1    3    3    0  502 -0.43906226498E+01 -0.59195266944E+02 -0.34873181418E+03  0.35377863900E+03  0.46999998093E+01 0.  1.
</event>
<event>
10   0  0.1583500E-03  0.1881737E+03  0.7818609E-02  0.1171490E+00
       21   -1    0    0  501  503  0.00000000000E+00  0.00000000000E+00  0.17981536735E+02  0.17981536735E+02  0.00000000000E+00 0.  1.
       -4   -1    0    0    0  501  0.00000000000E+00  0.00000000000E+00 -0.15417059664E+04  0.15417064895E+04  0.12699999809E+01 0.  1.
       25    2    1    2    0    0 -0.39318496308E+01  0.72977046353E+02 -0.65227321105E+03  0.66815195310E+03  0.12500232732E+03 0.  0.
       -6    2    1    2    0  503  0.39318496308E+01 -0.72977046353E+02 -0.87145121863E+03  0.89153607315E+03  0.17340194500E+03 0.  0.
      -24    2    4    4    0    0 -0.59176854473E+02 -0.35313167447E+02 -0.65274432936E+03  0.66076330672E+03  0.76053061112E+02 0.  0.
       13    1    5    5    0    0 -0.75857085104E+02 -0.37714571886E+02 -0.50437248823E+03  0.51143748820E+03  0.10565999895E+00 0. -1.
      -14    1    5    5    0    0  0.16680230632E+02  0.24014044393E+01 -0.14837184113E+03  0.14932581852E+03  0.00000000000E+00 0.  1.
       -5    1    4    4    0  503  0.63108704104E+02 -0.37663878906E+02 -0.21870688928E+03  0.23077276643E+03  0.46999998093E+01 0.  1.
        5    1    3    3  502    0 -0.56157950526E+02  0.45605936328E+02 -0.21494158865E+03  0.22683825375E+03  0.46999998093E+01 0.  1.
       -5    1    3    3    0  502  0.52226100895E+02  0.27371110025E+02 -0.43733162240E+03  0.44131369935E+03  0.46999998093E+01 0.  1.
</event>
<event>
10   0  0.1583500E-03  0.1720231E+03  0.7818609E-02  0.1189816E+00
        2   -1    0    0  503    0  0.00000000000E+00  0.00000000000E+00  0.14805259025E+04  0.14805259025E+04  0.00000000000E+00 0.  1.
       21   -1    0    0  501  503  0.00000000000E+00  0.00000000000E+00 -0.18016183703E+02  0.18016183703E+02  0.25500000920E-02 0.  1.
       25    2    1    2    0    0 -0.10379472312E+02 -0.63092026231E+01  0.94218065184E+03  0.95051446203E+03  0.12500328931E+03 0.  0.
        6    2    1    2  501    0  0.10379472312E+02  0.63092026231E+01  0.52032906692E+03  0.54802762414E+03  0.17159370459E+03 0.  0.
       24    2    4    4    0    0 -0.23997987254E+02 -0.52436311837E+02  0.37500105090E+03  0.38748115911E+03  0.78679033404E+02 0.  0.
      -11    1    5    5    0    0  0.10147806082E+02  0.33246000401E-01  0.34878660762E+01  0.10730530444E+02  0.51099999109E-03 0.  1.
       12    1    5    5    0    0 -0.34145793336E+02 -0.52469557838E+02  0.37151318483E+03  0.37675062867E+03  0.00000000000E+00 0. -1.
        5    1    4    4  501    0  0.34377459566E+02  0.58745514460E+02  0.14532801601E+03  0.16054646503E+03  0.46999998093E+01 0. -1.
        5    1    3    3  502    0  0.32652298094E+02  0.17686752894E+02  0.78122064566E+03  0.78211685892E+03  0.46999998093E+01 0. -1.
       -5    1    3    3    0  502 -0.43031770406E+02 -0.23995955517E+02  0.16096000618E+03  0.16839760311E+03  0.46999998093E+01 0. -1.
</event>
<event>
10   0  0.1583500E-03  0.2043786E+03  0.7818609E-02  0.1154588E+00
        2   -1    0    0  503    0  0.00000000000E+00  0.00000000000E+00  0.65854630907E+03  0.65854630907E+03  0.00000000000E+00 0. -1.
       21   -1    0    0  501  503  0.00000000000E+00  0.00000000000E+00 -0.10588034406E+03  0.10588034406E+03  0.25500000920E-02 0. -1.
       25    2    1    2    0    0  0.77274539924E+02 -0.79628697847E+02  0.53359191229E+03  0.55915989698E+03  0.12500950961E+03 0.  0.
        6    2    1    2  501    0 -0.77274539924E+02  0.79628697847E+02  0.19074052717E+02  0.20526675615E+03  0.17163489637E+03 0.  0.
       24    2    4    4    0    0  0.10681576213E+02  0.46101799384E+02  0.50450125370E+02  0.10593459006E+03  0.80233722620E+02 0.  0.
      -11    1    5    5    0    0  0.55772365883E+01 -0.22534582731E+02  0.59135710279E+01  0.23955861692E+02  0.51099999109E-03 0.  1.
       12    1    5    5    0    0  0.51043396247E+01  0.68636382116E+02  0.44536554342E+02  0.81978728373E+02  0.00000000000E+00 0. -1.
        5    1    4    4  501    0 -0.87956116137E+02  0.33526898462E+02 -0.31376072653E+02  0.99332166088E+02  0.46999998093E+01 0. -1.
        5    1    3    3  502    0 -0.11304295614E+02 -0.77451857608E+02  0.25296085093E+03  0.26483553283E+03  0.46999998093E+01 0. -1.
       -5    1    3    3    0  502  0.88578835537E+02 -0.21768402392E+01  0.28063106136E+03  0.29432436415E+03  0.46999998093E+01 0. -1.
</event>
<event>
10   0  0.1583500E-03  0.1824741E+03  0.7818609E-02  0.1176720E+00
        2   -1    0    0  503    0  0.00000000000E+00  0.00000000000E+00  0.73907507591E+03  0.73907507591E+03  0.00000000000E+00 0.  1.
       21   -1    0    0  501  503  0.00000000000E+00  0.00000000000E+00 -0.74285683659E+02  0.74285683659E+02  0.25500000920E-02 0.  1.
       25    2    1    2    0    0  0.63345105084E+02 -0.15711580492E+02  0.60518909186E+03  0.62139988585E+03  0.12499810048E+03 0.  0.
        6    2    1    2  501    0 -0.63345105084E+02  0.15711580492E+02  0.59600300388E+02  0.19196087372E+03  0.17040341879E+03 0.  0.
       24    2    4    4    0    0  0.94336872742E+01  0.57399629022E+02  0.35207489172E+02  0.10448661897E+03  0.79335832907E+02 0.  0.
      -13    1    5    5    0    0 -0.14423746345E+02  0.37670458583E+02 -0.17013482234E+02  0.43778735137E+02  0.10565999895E+00 0.  1.
       14    1    5    5    0    0  0.23857433619E+02  0.19729170439E+02  0.52220971407E+02  0.60707883835E+02  0.00000000000E+00 0. -1.
        5    1    4    4  501    0 -0.72778792358E+02 -0.41688048529E+02  0.24392811215E+02  0.87474254752E+02  0.46999998093E+01 0. -1.
        5    1    3    3  502    0  0.14444942290E+02  0.11673783824E+02  0.67327447731E+01  0.20306487557E+02  0.46999998093E+01 0. -1.
       -5    1    3    3    0  502  0.48900162794E+02 -0.27385364316E+02  0.59845634709E+03  0.60109339829E+03  0.46999998093E+01 0. -1.
</event>
<event>
10   0  0.1583500E-03  0.2055737E+03  0.7818609E-02  0.1153307E+00
       21   -1    0    0  501  503  0.00000000000E+00  0.00000000000E+00  0.27845453339E+02  0.27845453339E+02  0.00000000000E+00 0.  1.
        2   -1    0    0  503    0  0.00000000000E+00  0.00000000000E+00 -0.16548087221E+04  0.16548087221E+04  0.25500000920E-02 0.  1.
       25    2    1    2    0    0  0.95920117780E+02  0.61866617906E+02 -0.11621059611E+04  0.11743699220E+04  0.12500520551E+03 0.  0.
        6    2    1    2  501    0 -0.95920117780E+02 -0.61866617906E+02 -0.46485730768E+03  0.50828425348E+03  0.17097490586E+03 0.  0.
       24    2    4    4    0    0 -0.12654605951E+03 -0.33091842104E+02 -0.39537052416E+03  0.42694275663E+03  0.94091927742E+02 0.  0.
      -11    1    5    5    0    0 -0.27233506335E+02 -0.51429070600E+02 -0.11395366039E+03  0.12795331135E+03  0.51099999109E-03 0.  1.
       12    1    5    5    0    0 -0.99312553179E+02  0.18337228496E+02 -0.28141686377E+03  0.29898944527E+03  0.00000000000E+00 0. -1.
        5    1    4    4  501    0  0.30625941735E+02 -0.28774775802E+02 -0.69486783513E+02  0.81341496856E+02  0.46999998093E+01 0. -1.
        5    1    3    3  502    0 -0.21250447702E+02  0.38716105123E+02 -0.46239878448E+03  0.46452690364E+03  0.46999998093E+01 0.  1.
       -5    1    3    3    0  502  0.11717056548E+03  0.23150512783E+02 -0.69970717660E+03  0.70984301831E+03  0.46999998093E+01 0.  1.
</event>
<event>
10   0  0.1583500E-03  0.1883758E+03  0.7818609E-02  0.1170692E+00
        2   -1    0    0  503    0  0.00000000000E+00  0.00000000000E+00  0.22118131823E+04  0.22118131823E+04  0.00000000000E+00 0. -1.
       21   -1    0    0  501  503  0.00000000000E+00  0.00000000000E+00 -0.13859793598E+02  0.13859793598E+02  0.25500000920E-02 0. -1.
       25    2    1    2    0    0  0.77259771880E+02 -0.13016004815E+01  0.12925388693E+04  0.13008698181E+04  0.12503914737E+03 0.  0.
        6    2    1    2  501    0 -0.77259771880E+02  0.13016004815E+01  0.90541451940E+03  0.92480315783E+03  0.17179831865E+03 0.  0.
       24    2    4    4    0    0 -0.47926525283E+02 -0.34187611766E+02  0.26259201048E+03  0.28031670219E+03  0.78467476919E+02 0.  0.
      -13    1    5    5    0    0  0.67764322085E+00 -0.32803906607E+02  0.19084766995E+03  0.19364761754E+03  0.10565999895E+00 0.  1.
       14    1    5    5    0    0 -0.48604168504E+02 -0.13837051589E+01  0.71744340528E+02  0.86669084648E+02  0.00000000000E+00 0. -1.
        5    1    4    4  501    0 -0.29333246597E+02  0.35489212247E+02  0.64282250892E+03  0.64448645564E+03  0.46999998093E+01 0. -1.
        5    1    3    3  502    0  0.78814023408E+02 -0.28792932502E+02  0.44472814815E+03  0.45259904883E+03  0.46999998093E+01 0.  1.
       -5    1    3    3    0  502 -0.15542515281E+01  0.27491332021E+02  0.84781072118E+03  0.84827076926E+03  0.46999998093E+01 0.  1.
</event>
<event>
10   0  0.1583500E-03  0.1764889E+03  0.7818609E-02  0.1184482E+00
       21   -1    0    0  501  503  0.00000000000E+00  0.00000000000E+00  0.61418041899E+03  0.61418041899E+03  0.00000000000E+00 0.  1.
        2   -1    0    0  503    0  0.00000000000E+00  0.00000000000E+00 -0.38466517710E+02  0.38466517795E+02  0.25500000920E-02 0.  1.
       25    2    1    2    0    0 -0.15318000283E+02 -0.35782438679E+02  0.24550042180E+03  0.27822834812E+03  0.12500213016E+03 0.  0.
        6    2    1    2  501    0  0.15318000283E+02  0.35782438679E+02  0.33021347948E+03  0.37441858866E+03  0.17214329337E+03 0.  0.
       24    2    4    4    0    0  0.34735710913E+02 -0.25761430038E+02  0.10873844253E+03  0.14368502532E+03  0.83373357414E+02 0.  0.
      -15    1    5    5    0    0  0.30805342132E+02  0.13435471203E+02  0.96859112529E+02  0.10253938950E+03  0.17769999504E+01 0.  1.
       16    1    5    5    0    0  0.39303687812E+01 -0.39196901242E+02  0.11879330004E+02  0.41145635820E+02  0.00000000000E+00 0. -1.
        5    1    4    4  501    0 -0.19417710630E+02  0.61543868717E+02  0.22147503695E+03  0.23073356334E+03  0.46999998093E+01 0. -1.
        5    1    3    3  502    0  0.46440205343E+02  0.14031786365E+02  0.67211526767E+02  0.83024472473E+02  0.46999998093E+01 0.  1.
       -5    1    3    3    0  502 -0.61758205626E+02 -0.49814225044E+02  0.17828889503E+03  0.19520387565E+03  0.46999998093E+01 0.  1.
</event>
<event>
10   0  0.1583500E-03  0.2503391E+03  0.7818609E-02  0.1117697E+00
       21   -1    0    0  501  503  0.00000000000E+00  0.00000000000E+00  0.12670844418E+03  0.12670844418E+03  0.00000000000E+00 0.  1.
        2   -1    0    0  503    0  0.00000000000E+00  0.00000000000E+00 -0.47456247966E+03  0.47456247967E+03  0.25500000920E-02 0.  1.
       25    2    1    2    0    0 -0.60361738501E+02  0.17437889710E+03 -0.24335529799E+03  0.32999683078E+03  0.12499827212E+03 0.  0.
        6    2    1    2  501    0  0.60361738501E+02 -0.17437889710E+03 -0.10449873749E+03  0.27127409307E+03  0.16916887482E+03 0.  0.
       24    2    4    4    0    0  0.26031531420E+02 -0.74232335002E+02  0.12482011285E+02  0.11343087149E+03  0.80763121613E+02 0.  0.
      -15    1    5    5    0    0  0.29934699091E+02 -0.50869664720E+02 -0.28904715403E+02  0.65745336714E+02  0.17769999504E+01 0.  1.
       16    1    5    5    0    0 -0.39031676719E+01 -0.23362670283E+02  0.41386726688E+02  0.47685534773E+02  0.00000000000E+00 0. -1.
        5    1    4    4  501    0  0.34330207082E+02 -0.10014656210E+03 -0.11698074877E+03  0.15784322159E+03  0.46999998093E+01 0. -1.
        5    1    3    3  502    0 -0.45995412408E+02  0.47289456549E+01 -0.24080321096E+02  0.52343984869E+02  0.46999998093E+01 0. -1.
       -5    1    3    3    0  502 -0.14366326093E+02  0.16964995145E+03 -0.21927497689E+03  0.27765284591E+03  0.46999998093E+01 0. -1.
</event>
<event>
10   0  0.1583500E-03  0.2784326E+03  0.7818609E-02  0.1100418E+00
        2   -1    0    0  503    0  0.00000000000E+00  0.00000000000E+00  0.22253687950E+04  0.22253687950E+04  0.00000000000E+00 0.  1.
       21   -1    0    0  501  503  0.00000000000E+00  0.00000000000E+00 -0.45986969584E+02  0.45986969584E+02  0.25500000920E-02 0. -1.
       25    2    1    2    0    0  0.20579115044E+03 -0.73546478063E+02  0.16871616222E+04  0.17058423180E+04  0.12499836911E+03 0.  0.
        6    2    1    2  501    0 -0.20579115044E+03  0.73546478063E+02  0.49222020317E+03  0.56551344658E+03  0.17252723792E+03 0.  0.
       24    2    4    4    0    0 -0.12008332501E+03  0.22149713468E+02  0.41265819716E+03  0.43768676100E+03  0.79826676715E+02 0.  0.
      -15    1    5    5    0    0 -0.23652864621E+02 -0.21949145405E+02  0.16735645910E+03  0.17044813030E+03  0.17769999504E+01 0.  1.
       16    1    5    5    0    0 -0.96430460393E+02  0.44098858873E+02  0.24530173805E+03  0.26723863070E+03  0.00000000000E+00 0. -1.
        5    1    4    4  501    0 -0.85707825422E+02  0.51396764595E+02  0.79562006011E+02  0.12782668559E+03  0.46999998093E+01 0. -1.
        5    1    3    3  502    0 -0.13998269947E+02 -0.12137786093E+02  0.24332823673E+03  0.24407785274E+03  0.46999998093E+01 0.  1.
       -5    1    3    3    0  502  0.21978942038E+03 -0.61408691970E+02  0.14438333855E+04  0.14617644653E+04  0.46999998093E+01 0.  1.
</event>
<event>
10   0  0.1583500E-03  0.2141613E+03  0.7818609E-02  0.1145591E+00
       21   -1    0    0  501  503  0.00000000000E+00  0.00000000000E+00  0.72181064761E+02  0.72181064761E+02  0.00000000000E+00 0.  1.
       -2   -1    0    0    0  501  0.00000000000E+00  0.00000000000E+00 -0.55605946678E+03  0.55605946679E+03  0.25500000920E-02 0.  1.
       25    2    1    2    0    0  0.55425633285E+02  0.11674738584E+03 -0.27867962055E+03  0.33164045157E+03  0.12498442015E+03 0.  0.
       -6    2    1    2    0  503 -0.55425633285E+02 -0.11674738584E+03 -0.20519878147E+03  0.29660007998E+03  0.17077211307E+03 0.  0.
      -24    2    4    4    0    0 -0.14421897032E+02 -0.23629193789E+01 -0.41756786050E+02  0.92883393335E+02  0.81670809193E+02 0.  0.
       11    1    5    5    0    0 -0.89903382291E+01  0.11219428261E+02 -0.64367373270E+02  0.65953472190E+02  0.51099999109E-03 0. -1.
      -12    1    5    5    0    0 -0.54315588031E+01 -0.13582347640E+02  0.22610587220E+02  0.26929921145E+02  0.00000000000E+00 0.  1.
       -5    1    4    4    0  503 -0.41003736253E+02 -0.11438446646E+03 -0.16344199542E+03  0.20371668664E+03  0.46999998093E+01 0.  1.
        5    1    3    3  502    0  0.35753768048E+02  0.82844824049E+02 -0.27783143438E+03  0.29215405650E+03  0.46999998093E+01 0. -1.
       -5    1    3    3    0  502  0.19671865237E+02  0.33902561787E+02 -0.84818617360E+00  0.39486395069E+02  0.46999998093E+01 0. -1.
</event>
<event>
10   0  0.1583500E-03  0.2051415E+03  0.7818609E-02  0.1154120E+00
       21   -1    0    0  501  503  0.00000000000E+00  0.00000000000E+00  0.36971766576E+02  0.36971766576E+02  0.00000000000E+00 0.  1.
        2   -1    0    0  503    0  0.00000000000E+00  0.00000000000E+00 -0.10964132994E+04  0.10964132994E+04  0.25500000920E-02 0. -1.
       25    2    1    2    0    0 -0.64469069224E+02 -0.90272597192E+02 -0.69855607414E+03  0.71826898899E+03  0.12499739650E+03 0.  0.
        6    2    1    2  501    0  0.64469069224E+02  0.90272597192E+02 -0.36088545869E+03  0.41511607699E+03  0.17256199001E+03 0.  0.
       24    2    4    4    0    0  0.54475337828E+02  0.13084043371E+03 -0.28974177945E+03  0.33247748359E+03  0.80648600790E+02 0.  0.
      -11    1    5    5    0    0 -0.19005931201E+02  0.20524056872E+02 -0.75866370752E+02  0.80858942255E+02  0.51099999109E-03 0.  1.
       12    1    5    5    0    0  0.73481269030E+02  0.11031637683E+03 -0.21387540870E+03  0.25161854133E+03  0.00000000000E+00 0. -1.
        5    1    4    4  501    0  0.99937313953E+01 -0.40567836515E+02 -0.71143679237E+02  0.82638593407E+02  0.46999998093E+01 0. -1.
        5    1    3    3  502    0  0.19305479670E+02  0.11465637823E+02 -0.24095619144E+03  0.24204573656E+03  0.46999998093E+01 0. -1.
       -5    1    3    3    0  502 -0.83774548894E+02 -0.10173823501E+03 -0.45759988270E+03  0.47622325243E+03  0.46999998093E+01 0. -1.
</event>
<event>
10   0  0.1583500E-03  0.2104225E+03  0.7818609E-02  0.1149200E+00
        2   -1    0    0  503    0  0.00000000000E+00  0.00000000000E+00  0.60893903477E+03  0.60893903477E+03  0.00000000000E+00 0. -1.
       21   -1    0    0  501  503  0.00000000000E+00  0.00000000000E+00 -0.15488387237E+03  0.15488387237E+03  0.25500000920E-02 0. -1.
       25    2    1    2    0    0  0.86713953612E+01  0.12063943349E+03  0.51595481339E+03  0.54448478414E+03  0.12500097878E+03 0.  0.
        6    2    1    2  501    0 -0.86713953612E+01 -0.12063943349E+03 -0.61899650993E+02  0.21933812300E+03  0.17218762847E+03 0.  0.
       24    2    4    4    0    0 -0.11772911296E+02 -0.45011081288E+02  0.32208227928E+02  0.98476011770E+02  0.80595012679E+02 0.  0.
      -11    1    5    5    0    0 -0.20091241483E+02 -0.51376046955E+02  0.52174108102E+02  0.75929531420E+02  0.51099999109E-03 0.  1.
       12    1    5    5    0    0  0.83183301869E+01  0.63649656668E+01 -0.19965880174E+02  0.22546480350E+02  0.00000000000E+00 0. -1.
        5    1    4    4  501    0  0.31015159350E+01 -0.75628352199E+02 -0.94107878921E+02  0.12086211123E+03  0.46999998093E+01 0. -1.
        5    1    3    3  502    0  0.21591198492E+02  0.12331654889E+03  0.51546385508E+03  0.53046981721E+03  0.46999998093E+01 0.  1.
       -5    1    3    3    0  502 -0.12919803131E+02 -0.26771154054E+01  0.49095831070E+00  0.14014966932E+02  0.46999998093E+01 0.  1.
</event>
<event>
10   0  0.1583500E-03  0.1883568E+03  0.7818609E-02  0.1170799E+00
        2   -1    0    0  503    0  0.00000000000E+00  0.00000000000E+00  0.39506606200E+03  0.39506606201E+03  0.00000000000E+00 0.  1.
       21   -1    0    0  501  503  0.00000000000E+00  0.00000000000E+00 -0.77571954694E+02  0.77571954694E+02  0.25500000920E-02 0.  1.
       25    2    1    2    0    0  0.19334047522E+02 -0.74259644916E+02  0.20880803207E+03  0.25517319807E+03  0.12499706596E+03 0.  0.
        6    2    1    2  501    0 -0.19334047522E+02  0.74259644916E+02  0.10868607523E+03  0.21746481863E+03  0.17201739487E+03 0.  0.
       24    2    4    4    0    0  0.40222060697E+02  0.37281222792E+02  0.10962566663E+03  0.14719884849E+03  0.81498530508E+02 0.  0.
      -15    1    5    5    0    0  0.20566543578E+02  0.52751264863E+02  0.30755407770E+02  0.64457206698E+02  0.17769999504E+01 0.  1.
       16    1    5    5    0    0  0.19655517119E+02 -0.15470042071E+02  0.78870258858E+02  0.82741641797E+02  0.00000000000E+00 0. -1.
        5    1    4    4  501    0 -0.59556108219E+02  0.36978422124E+02 -0.93959139696E+00  0.70265970136E+02  0.46999998093E+01 0. -1.
        5    1    3    3  502    0  0.50109902492E+02 -0.86677956263E+02  0.10107198848E+03  0.14234362397E+03  0.46999998093E+01 0. -1.
       -5    1    3    3    0  502 -0.30775854970E+02  0.12418311347E+02  0.10773604359E+03  0.11282957410E+03  0.46999998093E+01 0. -1.
</event>
<event>
10   0  0.1583500E-03  0.1765115E+03  0.7818609E-02  0.1184010E+00
        2   -1    0    0  503    0  0.00000000000E+00  0.00000000000E+00  0.87668168536E+03  0.87668168536E+03  0.00000000000E+00 0.  1.
       21   -1    0    0  501  503  0.00000000000E+00  0.00000000000E+00 -0.31761722362E+02  0.31761722362E+02  0.25500000920E-02 0. -1.
       25    2    1    2    0    0  0.10106087318E+01 -0.43184354597E+02  0.54149534170E+03  0.55741232881E+03  0.12500155765E+03 0.  0.
        6    2    1    2  501    0 -0.10106087318E+01  0.43184354597E+02  0.30342462130E+03  0.35103107892E+03  0.17114440611E+03 0.  0.
       24    2    4    4    0    0  0.37907978049E+02  0.47442552350E+02  0.88758161404E+02  0.13277304894E+03  0.77864373990E+02 0.  0.
      -13    1    5    5    0    0 -0.18342695022E+02  0.36859406712E+02  0.42586315478E+02  0.59234075952E+02  0.10565999895E+00 0.  1.
       14    1    5    5    0    0  0.56250673071E+02  0.10583145638E+02  0.46171845926E+02  0.73538972993E+02  0.00000000000E+00 0. -1.
        5    1    4    4  501    0 -0.38918586781E+02 -0.42581977530E+01  0.21466645990E+03  0.21825802997E+03  0.46999998093E+01 0. -1.
        5    1    3    3  502    0  0.87254070597E+01 -0.81177602309E+01  0.50775955880E+03  0.50792114576E+03  0.46999998093E+01 0. -1.
       -5    1    3    3    0  502 -0.77147983279E+01 -0.35066594366E+02  0.33735782900E+02  0.49491183051E+02  0.46999998093E+01 0. -1.
</event>
<event>
10   0  0.1583500E-03  0.4006506E+03  0.7818609E-02  0.1045071E+00
       21   -1    0    0  501  503  0.00000000000E+00  0.00000000000E+00  0.22020884983E+03  0.22020884983E+03  0.00000000000E+00 0.  1.
        2   -1    0    0  503    0  0.00000000000E+00  0.00000000000E+00 -0.10325825047E+04  0.10325825047E+04  0.25500000920E-02 0. -1.
       25    2    1    2    0    0 -0.13583376151E+03  0.33614995927E+03 -0.75664204667E+03  0.84828308634E+03  0.12501760630E+03 0.  0.
        6    2    1    2  501    0  0.13583376151E+03 -0.33614995927E+03 -0.55731608219E+02  0.40450826822E+03  0.17050900567E+03 0.  0.
       24    2    4    4    0    0  0.10888693541E+03 -0.16871881948E+03  0.23595403905E+02  0.21722724179E+03  0.79426234585E+02 0.  0.
      -15    1    5    5    0    0  0.10360452491E+03 -0.14799711396E+03 -0.59393984641E+01  0.18076359563E+03  0.17769999504E+01 0.  1.
       16    1    5    5    0    0  0.52824104997E+01 -0.20721705525E+02  0.29534802369E+02  0.36463646164E+02  0.00000000000E+00 0. -1.
        5    1    4    4  501    0  0.26946826101E+02 -0.16743113979E+03 -0.79327012124E+02  0.18728102643E+03  0.46999998093E+01 0. -1.
        5    1    3    3  502    0 -0.12512218294E+03  0.19581644384E+03 -0.37163845902E+03  0.43833420419E+03  0.46999998093E+01 0.  1.
       -5    1    3    3    0  502 -0.10711578571E+02  0.14033351543E+03 -0.38500358766E+03  0.40994888215E+03  0.46999998093E+01 0.  1.
</event>
<event>
10   0  0.1583500E-03  0.1742336E+03  0.7818609E-02  0.1186283E+00
       21   -1    0    0  501  503  0.00000000000E+00  0.00000000000E+00  0.10561251946E+04  0.10561251946E+04  0.00000000000E+00 0. -1.
       -2   -1    0    0    0  501  0.00000000000E+00  0.00000000000E+00 -0.23566413455E+02  0.23566413593E+02  0.25500000920E-02 0. -1.
       25    2    1    2    0    0 -0.37561473183E+02 -0.73413156472E+01  0.31022267746E+03  0.33663926485E+03  0.12499250316E+03 0.  0.
       -6    2    1    2    0  503  0.37561473183E+02  0.73413156472E+01  0.72233610372E+03  0.74305234338E+03  0.16997817235E+03 0.  0.
      -24    2    4    4    0    0  0.39219237740E+02 -0.57051801826E+02  0.51493077279E+03  0.52582370103E+03  0.80893801321E+02 0.  0.
       15    1    5    5    0    0  0.38580361684E+02 -0.32782111120E+02  0.12141055650E+03  0.13155528144E+03  0.17769999504E+01 0. -1.
      -16    1    5    5    0    0  0.63887605587E+00 -0.24269690705E+02  0.39352021630E+03  0.39426841959E+03  0.00000000000E+00 0.  1.
       -5    1    4    4    0  503 -0.16577645570E+01  0.64393117473E+02  0.20740533093E+03  0.21722864235E+03  0.46999998093E+01 0.  1.
        5    1    3    3  502    0 -0.75300572213E+02 -0.35404691794E+02  0.20468028999E+03  0.22099723864E+03  0.46999998093E+01 0. -1.
       -5    1    3    3    0  502  0.37739099030E+02  0.28063376147E+02  0.10554238747E+03  0.11564202622E+03  0.46999998093E+01 0. -1.
</event>
<event>
10   0  0.1583500E-03  0.1980434E+03  0.7818609E-02  0.1160872E+00
        2   -1    0    0  503    0  0.00000000000E+00  0.00000000000E+00  0.19375417476E+04  0.19375417476E+04  0.00000000000E+00 0. -1.
       21   -1    0    0  501  503  0.00000000000E+00  0.00000000000E+00 -0.39127779608E+02  0.39127779608E+02  0.25500000920E-02 0.  1.
       25    2    1    2    0    0  0.81118125556E+02 -0.54351803431E+02  0.16562889719E+04  0.16638665383E+04  0.12499771996E+03 0.  0.
        6    2    1    2  501    0 -0.81118125556E+02  0.54351803431E+02  0.24212499613E+03  0.31280298895E+03  0.17229894752E+03 0.  0.
       24    2    4    4    0    0 -0.42748478888E+02 -0.26378939601E+02  0.66908465090E+02  0.11604779740E+03  0.80418080542E+02 0.  0.
      -11    1    5    5    0    0 -0.40236593667E+02  0.14599738768E+02  0.69256715679E+01  0.43360128793E+02  0.51099999109E-03 0.  1.
       12    1    5    5    0    0 -0.25118852217E+01 -0.40978678370E+02  0.59982793522E+02  0.72687668603E+02  0.00000000000E+00 0. -1.
        5    1    4    4  501    0 -0.38369646668E+02  0.80730743032E+02  0.17521653104E+03  0.19675519156E+03  0.46999998093E+01 0. -1.
        5    1    3    3  502    0 -0.12533068832E+02 -0.19378593232E+01  0.88808658516E+03  0.88818956639E+03  0.46999998093E+01 0.  1.
       -5    1    3    3    0  502  0.93651194389E+02 -0.52413944108E+02  0.76820238674E+03  0.77567697190E+03  0.46999998093E+01 0.  1.
</event>
<event>
10   0  0.1583500E-03  0.1839252E+03  0.7818609E-02  0.1176022E+00
        2   -1    0    0  503    0  0.00000000000E+00  0.00000000000E+00  0.57418356693E+03  0.57418356693E+03  0.00000000000E+00 0. -1.
       21   -1    0    0  501  503  0.00000000000E+00  0.00000000000E+00 -0.77803573335E+02  0.77803573335E+02  0.25500000920E-02 0. -1.
       25    2    1    2    0    0  0.49032637531E+02 -0.39246699051E+02  0.43679753579E+03  0.45865186072E+03  0.12499975655E+03 0.  0.
        6    2    1    2  501    0 -0.49032637531E+02  0.39246699051E+02  0.59582457797E+02  0.19333527955E+03  0.17286977211E+03 0.  0.
       24    2    4    4    0    0 -0.31782938817E+02  0.58902303517E+02 -0.23055168286E+02  0.10653111988E+03  0.79609686336E+02 0.  0.
      -15    1    5    5    0    0  0.17534362446E+02 -0.92321504681E+01 -0.45473268328E+01  0.20408879901E+02  0.17769999504E+01 0.  1.
       16    1    5    5    0    0 -0.49317301262E+02  0.68134453985E+02 -0.18507841453E+02  0.86122239978E+02  0.00000000000E+00 0. -1.
        5    1    4    4  501    0 -0.17249698714E+02 -0.19655604466E+02  0.82637626083E+02  0.86804159667E+02  0.46999998093E+01 0. -1.
        5    1    3    3  502    0 -0.22162380836E+02 -0.60537445653E+02  0.22749485002E+03  0.23649936625E+03  0.46999998093E+01 0.  1.
       -5    1    3    3    0  502  0.71195018367E+02  0.21290746603E+02  0.20930268577E+03  0.22215249447E+03  0.46999998093E+01 0.  1.
</event>
<event>
10   0  0.1583500E-03  0.2260748E+03  0.7818609E-02  0.1135918E+00
       21   -1    0    0  501  503  0.00000000000E+00  0.00000000000E+00  0.14204652262E+03  0.14204652262E+03  0.00000000000E+00 0. -1.
        2   -1    0    0  503    0  0.00000000000E+00  0.00000000000E+00 -0.31582253190E+03  0.31582253191E+03  0.25500000920E-02 0. -1.
       25    2    1    2    0    0 -0.53609389421E+02 -0.13688238677E+03 -0.11369457782E+03  0.22394683356E+03  0.12495988474E+03 0.  0.
        6    2    1    2  501    0  0.53609389421E+02  0.13688238677E+03 -0.60081431466E+02  0.23392222097E+03  0.17175294063E+03 0.  0.
       24    2    4    4    0    0  0.91560842988E+02  0.88781794318E+02 -0.78806085050E+02  0.16968296139E+03  0.79475237486E+02 0.  0.
      -11    1    5    5    0    0  0.43470650393E+02 -0.15799168518E+01 -0.43198196206E+02  0.61304793765E+02  0.51099999109E-03 0.  1.
       12    1    5    5    0    0  0.48090192595E+02  0.90361711170E+02 -0.35607888844E+02  0.10837816762E+03  0.00000000000E+00 0. -1.
        5    1    4    4  501    0 -0.37951453567E+02  0.48100592447E+02  0.18724653584E+02  0.64239259583E+02  0.46999998093E+01 0. -1.
        5    1    3    3  502    0 -0.83713142368E+02 -0.47129076917E+02 -0.41283169881E+02  0.10466819101E+03  0.46999998093E+01 0. -1.
       -5    1    3    3    0  502  0.30103752947E+02 -0.89753309848E+02 -0.72411407937E+02  0.11927864255E+03  0.46999998093E+01 0. -1.
</event>
<event>
10   0  0.1583500E-03  0.1743543E+03  0.7818609E-02  0.1185767E+00
       -2   -1    0    0    0  501  0.00000000000E+00  0.00000000000E+00  0.14146868588E+03  0.14146868590E+03  0.00000000000E+00 0. -1.
       21   -1    0    0  501  503  0.00000000000E+00  0.00000000000E+00 -0.22394168004E+03  0.22394168004E+03  0.25500000920E-02 0. -1.
       25    2    1    2    0    0 -0.33110157127E+02  0.26340560419E+02  0.55416730836E+02  0.14312000287E+03  0.12498885365E+03 0.  0.
       -6    2    1    2    0  503  0.33110157127E+02 -0.26340560419E+02 -0.13788972500E+03  0.22229036307E+03  0.16914290297E+03 0.  0.
      -24    2    4    4    0    0  0.54053627770E+02  0.36166539480E+02 -0.56978333847E+02  0.11781783215E+03  0.80029355815E+02 0.  0.
       11    1    5    5    0    0  0.22064413780E+02  0.59503415099E+02 -0.37100997774E+02  0.73511759603E+02  0.51099999109E-03 0. -1.
      -12    1    5    5    0    0  0.31989213990E+02 -0.23336875619E+02 -0.19877336073E+02  0.44306072549E+02  0.00000000000E+00 0.  1.
       -5    1    4    4    0  503 -0.20943470643E+02 -0.62507099899E+02 -0.80911391149E+02  0.10447253092E+03  0.46999998093E+01 0.  1.
        5    1    3    3  502    0  0.35616119132E+02  0.46667911107E+02  0.34753195927E+02  0.68383305671E+02  0.46999998093E+01 0. -1.
       -5    1    3    3    0  502 -0.68726276259E+02 -0.20327350688E+02  0.20663534909E+02  0.74736697195E+02  0.46999998093E+01 0. -1.
</event>
<event>
10   0  0.1583500E-03  0.1988157E+03  0.7818609E-02  0.1160027E+00
        2   -1    0    0  503    0  0.00000000000E+00  0.00000000000E+00  0.64624875905E+03  0.64624875905E+03  0.00000000000E+00 0.  1.
       21   -1    0    0  501  503  0.00000000000E+00  0.00000000000E+00 -0.55918585979E+02  0.55918585979E+02  0.25500000920E-02 0.  1.
       25    2    1    2    0    0  0.71544036398E+02  0.69422296081E+02  0.38241435048E+03  0.41449272475E+03  0.12500191630E+03 0.  0.
        6    2    1    2  501    0 -0.71544036398E+02 -0.69422296081E+02  0.20791582258E+03  0.28767462028E+03  0.17201655018E+03 0.  0.
       24    2    4    4    0    0  0.92500689161E+01 -0.55734953374E+02  0.16903693254E+03  0.19685232735E+03  0.83578737825E+02 0.  0.
      -13    1    5    5    0    0 -0.33183908145E+02 -0.46427563059E+02  0.87516460343E+02  0.10447886086E+03  0.10565999895E+00 0.  1.
       14    1    5    5    0    0  0.42433977061E+02 -0.93073903154E+01  0.81520472200E+02  0.92373466490E+02  0.00000000000E+00 0. -1.
        5    1    4    4  501    0 -0.80794105314E+02 -0.13687342707E+02  0.38878890040E+02  0.90822292928E+02  0.46999998093E+01 0. -1.
        5    1    3    3  502    0  0.77550267695E+02  0.89984359321E+02  0.37137649386E+03  0.38994078927E+03  0.46999998093E+01 0.  1.
       -5    1    3    3    0  502 -0.60062312971E+01 -0.20562063239E+02  0.11037856621E+02  0.24551935485E+02  0.46999998093E+01 0.  1.
</event>
<event>
10   0  0.1583500E-03  0.1841317E+03  0.7818609E-02  0.1176411E+00
       21   -1    0    0  501  503  0.00000000000E+00  0.00000000000E+00  0.80244508490E+02  0.80244508490E+02  0.00000000000E+00 0. -1.
        2   -1    0    0  503    0  0.00000000000E+00  0.00000000000E+00 -0.12876058827E+04  0.12876058827E+04  0.25500000920E-02 0. -1.
       25    2    1    2    0    0 -0.43724118282E+02  0.39532774227E+02 -0.11722907947E+04  0.11804086094E+04  0.12499655615E+03 0.  0.
        6    2    1    2  501    0  0.43724118282E+02 -0.39532774227E+02 -0.35070579539E+02  0.18744178182E+03  0.17444150099E+03 0.  0.
       24    2    4    4    0    0 -0.28993084906E+02 -0.11421252528E+02  0.23750481386E+02  0.89666240411E+02  0.80652993260E+02 0.  0.
      -11    1    5    5    0    0 -0.28370039212E+02  0.27128532228E+02 -0.75899103411E+01  0.39980284203E+02  0.51099999109E-03 0.  1.
       12    1    5    5    0    0 -0.62304569404E+00 -0.38549784756E+02  0.31340391728E+02  0.49685956208E+02  0.00000000000E+00 0. -1.
        5    1    4    4  501    0  0.72717203188E+02 -0.28111521700E+02 -0.58821060925E+02  0.97775541412E+02  0.46999998093E+01 0. -1.
        5    1    3    3  502    0 -0.19599259397E+02  0.82021678449E+02 -0.87790655134E+03  0.88196014059E+03  0.46999998093E+01 0.  1.
       -5    1    3    3    0  502 -0.24124858885E+02 -0.42488904222E+02 -0.29438424336E+03  0.29844846881E+03  0.46999998093E+01 0.  1.
</event>
<event>
10   0  0.1583500E-03  0.1700511E+03  0.7818609E-02  0.1190822E+00
       21   -1    0    0  501  503  0.00000000000E+00  0.00000000000E+00  0.12351524437E+02  0.12351524437E+02  0.00000000000E+00 0.  1.
        2   -1    0    0  503    0  0.00000000000E+00  0.00000000000E+00 -0.26992575372E+04  0.26992575372E+04  0.25500000920E-02 0.  1.
       25    2    1    2    0    0 -0.17044193426E+02 -0.15904651300E+02 -0.19973838122E+04  0.20014272280E+04  0.12500157316E+03 0.  0.
        6    2    1    2  501    0  0.17044193426E+02  0.15904651300E+02 -0.68952220051E+03  0.71018183358E+03  0.16844556774E+03 0.  0.
       24    2    4    4    0    0  0.57955819790E+01  0.74750358326E+02 -0.36658382692E+03  0.38169951803E+03  0.75429537084E+02 0.  0.
      -11    1    5    5    0    0 -0.15564088041E+02  0.17626355458E+02 -0.23524904073E+02  0.33261845336E+02  0.51099999109E-03 0.  1.
       12    1    5    5    0    0  0.21359670020E+02  0.57124002868E+02 -0.34305892285E+03  0.34843767269E+03  0.00000000000E+00 0. -1.
        5    1    4    4  501    0  0.11248611447E+02 -0.58845707026E+02 -0.32293837359E+03  0.32848231555E+03  0.46999998093E+01 0. -1.
        5    1    3    3  502    0 -0.44410291018E+02 -0.11535674115E+02 -0.27700545446E+03  0.28081926131E+03  0.46999998093E+01 0. -1.
       -5    1    3    3    0  502  0.27366097592E+02 -0.43689771854E+01 -0.17203783578E+04  0.17206079667E+04  0.46999998093E+01 0. -1.
</event>
<event>
10   0  0.1583500E-03  0.1716321E+03  0.7818609E-02  0.1188912E+00
        4   -1    0    0  503    0  0.00000000000E+00  0.00000000000E+00  0.15391771813E+03  0.15392295753E+03  0.00000000000E+00 0.  1.
       21   -1    0    0  501  503  0.00000000000E+00  0.00000000000E+00 -0.23779879121E+03  0.23779879121E+03  0.12699999809E+01 0. -1.
       25    2    1    2    0    0  0.30124287267E+02 -0.10409214052E+02  0.82136240468E+02  0.15293456872E+03  0.12500718336E+03 0.  0.
        6    2    1    2  501    0 -0.30124287267E+02  0.10409214052E+02 -0.16601731355E+03  0.23878718001E+03  0.16864680406E+03 0.  0.
       24    2    4    4    0    0 -0.79191388293E+02  0.16770516092E+02 -0.13894406650E+03  0.18219126788E+03  0.85648574324E+02 0.  0.
      -13    1    5    5    0    0 -0.30244375282E+01 -0.19911923286E+02 -0.70733251343E+00  0.20152999643E+02  0.10565999895E+00 0.  1.
       14    1    5    5    0    0 -0.76166950764E+02  0.36682439378E+02 -0.13823673399E+03  0.16203826823E+03  0.00000000000E+00 0. -1.
        5    1    4    4  501    0  0.49067101026E+02 -0.63613020398E+01 -0.27073247046E+02  0.56595912136E+02  0.46999998093E+01 0. -1.
        5    1    3    3  502    0 -0.16388880754E+02  0.24339657791E+02  0.89422233813E+02  0.94230781871E+02  0.46999998093E+01 0. -1.
       -5    1    3    3    0  502  0.46513168020E+02 -0.34748871844E+02 -0.72859933453E+01  0.58703786853E+02  0.46999998093E+01 0. -1.
</event>
<event>
10   0  0.1583500E-03  0.1972589E+03  0.7818609E-02  0.1161818E+00
        2   -1    0    0  503    0  0.00000000000E+00  0.00000000000E+00  0.77555136894E+03  0.77555136895E+03  0.00000000000E+00 0.  1.
       21   -1    0    0  501  503  0.00000000000E+00  0.00000000000E+00 -0.50415253848E+02  0.50415253848E+02  0.25500000920E-02 0. -1.
       25    2    1    2    0    0  0.14617705217E+02 -0.93871774529E+02  0.51207853252E+03  0.53561405097E+03  0.12502959958E+03 0.  0.
        6    2    1    2  501    0 -0.14617705217E+02  0.93871774529E+02  0.21305758258E+03  0.29035257183E+03  0.17287421761E+03 0.  0.
       24    2    4    4    0    0 -0.25822513761E+02  0.13285426581E+03  0.18296992770E+03  0.23963236545E+03  0.75024115920E+02 0.  0.
      -11    1    5    5    0    0  0.24364740443E+02  0.21742590662E+02  0.34208074059E+02  0.47292421768E+02  0.51099999109E-03 0.  1.
       12    1    5    5    0    0 -0.50187254203E+02  0.11111167514E+03  0.14876185364E+03  0.19233994368E+03  0.00000000000E+00 0. -1.
        5    1    4    4  501    0  0.11204808543E+02 -0.38982491277E+02  0.30087654881E+02  0.50720206379E+02  0.46999998093E+01 0. -1.
        5    1    3    3  502    0 -0.43933968242E+02 -0.16283323928E+02  0.28040330834E+03  0.28432981822E+03  0.46999998093E+01 0.  1.
       -5    1    3    3    0  502  0.58551673459E+02 -0.77588450601E+02  0.23167522418E+03  0.25128423275E+03  0.46999998093E+01 0.  1.
</event>
<event>
10   0  0.1583500E-03  0.2287935E+03  0.7818609E-02  0.1133717E+00
        2   -1    0    0  503    0  0.00000000000E+00  0.00000000000E+00  0.14816469064E+04  0.14816469064E+04  0.00000000000E+00 0.  1.
       21   -1    0    0  501  503  0.00000000000E+00  0.00000000000E+00 -0.33721027356E+02  0.33721027356E+02  0.25500000920E-02 0. -1.
       25    2    1    2    0    0  0.14870554990E+03 -0.28735254114E+02  0.90748488205E+03  0.92849236781E+03  0.12502084042E+03 0.  0.
        6    2    1    2  501    0 -0.14870554990E+03  0.28735254114E+02  0.54044099696E+03  0.58687556591E+03  0.17148586900E+03 0.  0.
       24    2    4    4    0    0 -0.17906584494E+03  0.23140366501E+02  0.46754373230E+03  0.50757139530E+03  0.80196797511E+02 0.  0.
      -11    1    5    5    0    0 -0.58691719118E+02 -0.29554827073E+02  0.14010647629E+03  0.15475151177E+03  0.51099999109E-03 0.  1.
       12    1    5    5    0    0 -0.12037412582E+03  0.52695193573E+02  0.32743725601E+03  0.35281988354E+03  0.00000000000E+00 0. -1.
        5    1    4    4  501    0  0.30360295041E+02  0.55948876132E+01  0.72897264659E+02  0.79304170605E+02  0.46999998093E+01 0. -1.
        5    1    3    3  502    0  0.92143186430E+02  0.45021569238E+02  0.43779296311E+03  0.44966885266E+03  0.46999998093E+01 0. -1.
       -5    1    3    3    0  502  0.56562363471E+02 -0.73756823352E+02  0.46969191894E+03  0.47882351515E+03  0.46999998093E+01 0. -1.
</event>
<event>
10   0  0.1583500E-03  0.2105762E+03  0.7818609E-02  0.1149095E+00
       21   -1    0    0  501  503  0.00000000000E+00  0.00000000000E+00  0.80201563881E+02  0.80201563881E+02  0.00000000000E+00 0.  1.
        2   -1    0    0  503    0  0.00000000000E+00  0.00000000000E+00 -0.47470101601E+03  0.47470101601E+03  0.25500000920E-02 0.  1.
       25    2    1    2    0    0 -0.28051372551E+02 -0.11772200332E+03 -0.22596153620E+03  0.28518536841E+03  0.12500691561E+03 0.  0.
        6    2    1    2  501    0  0.28051372551E+02  0.11772200332E+03 -0.16853791593E+03  0.26971721148E+03  0.17232816223E+03 0.  0.
       24    2    4    4    0    0  0.73896927737E+02  0.11969493296E+03 -0.14663458642E+03  0.21865300461E+03  0.80745288320E+02 0.  0.
      -11    1    5    5    0    0  0.21879067219E+02  0.86591327587E+02 -0.12433158021E+03  0.15308524891E+03  0.51099999109E-03 0.  1.
       12    1    5    5    0    0  0.52017860518E+02  0.33103605369E+02 -0.22303006204E+02  0.65567755696E+02  0.00000000000E+00 0. -1.
        5    1    4    4  501    0 -0.45845555186E+02 -0.19729296394E+01 -0.21903329508E+02  0.51064206871E+02  0.46999998093E+01 0. -1.
        5    1    3    3  502    0 -0.75569551254E+02 -0.48599935113E+02 -0.11565263911E+03  0.14652758682E+03  0.46999998093E+01 0. -1.
       -5    1    3    3    0  502  0.47518178703E+02 -0.69122068203E+02 -0.11030889709E+03  0.13865778159E+03  0.46999998093E+01 0. -1.
</event>
<event>
10   0  0.1583500E-03  0.3606669E+03  0.7818609E-02  0.1060404E+00
       -2   -1    0    0    0  501  0.00000000000E+00  0.00000000000E+00  0.25420468978E+03  0.25420468979E+03  0.00000000000E+00 0.  1.
       21   -1    0    0  501  503  0.00000000000E+00  0.00000000000E+00 -0.57226107697E+03  0.57226107697E+03  0.25500000920E-02 0. -1.
       25    2    1    2    0    0  0.27732484442E+03  0.15234449094E+03  0.79396349402E+01  0.34030319934E+03  0.12500126570E+03 0.  0.
       -6    2    1    2    0  503 -0.27732484442E+03 -0.15234449094E+03 -0.32599602213E+03  0.48616256742E+03  0.17309743574E+03 0.  0.
      -24    2    4    4    0    0 -0.25332498205E+03 -0.14716747521E+03 -0.21470493134E+03  0.37209858636E+03  0.80791943537E+02 0.  0.
       15    1    5    5    0    0 -0.23646950708E+03 -0.13577225905E+03 -0.22079145541E+03  0.35086173718E+03  0.17769999504E+01 0. -1.
      -16    1    5    5    0    0 -0.16855474976E+02 -0.11395216168E+02  0.60865240713E+01  0.21236849188E+02  0.00000000000E+00 0.  1.
       -5    1    4    4    0  503 -0.23999862367E+02 -0.51770157256E+01 -0.11129109080E+03  0.11406398106E+03  0.46999998093E+01 0.  1.
        5    1    3    3  502    0  0.14591369450E+02  0.36664806062E+02 -0.31215828626E+02  0.50534483484E+02  0.46999998093E+01 0.  1.
       -5    1    3    3    0  502  0.26273347497E+03  0.11567968488E+03  0.39155463566E+02  0.28976871586E+03  0.46999998093E+01 0.  1.
</event>
<event>
10   0  0.1583500E-03  0.1979175E+03  0.7818609E-02  0.1161037E+00
        2   -1    0    0  503    0  0.00000000000E+00  0.00000000000E+00  0.24358753126E+03  0.24358753127E+03  0.00000000000E+00 0.  1.
       21   -1    0    0  501  503  0.00000000000E+00  0.00000000000E+00 -0.19831101881E+03  0.19831101881E+03  0.25500000920E-02 0.  1.
       25    2    1    2    0    0 -0.52589146308E+02 -0.81679929772E+02  0.14990962764E+03  0.21802484792E+03  0.12499883446E+03 0.  0.
        6    2    1    2  501    0  0.52589146308E+02  0.81679929772E+02 -0.10463311519E+03  0.22387370216E+03  0.17243583295E+03 0.  0.
       24    2    4    4    0    0  0.22517315778E+02  0.10022206963E+03 -0.19715442283E+02  0.13178012414E+03  0.80161148327E+02 0.  0.
      -11    1    5    5    0    0 -0.19002939114E+02  0.34003713680E+02 -0.34735468895E+02  0.52191158626E+02  0.51099999109E-03 0.  1.
       12    1    5    5    0    0  0.41520254892E+02  0.66218355954E+02  0.15020026612E+02  0.79588965510E+02  0.00000000000E+00 0. -1.
        5    1    4    4  501    0  0.30071830531E+02 -0.18542139863E+02 -0.84917672909E+02  0.92093578020E+02  0.46999998093E+01 0. -1.
        5    1    3    3  502    0 -0.23492767190E+02 -0.69622433643E+02  0.16654661029E+03  0.18209628435E+03  0.46999998093E+01 0. -1.
       -5    1    3    3    0  502 -0.29096379118E+02 -0.12057496128E+02 -0.16636982649E+02  0.35928563574E+02  0.46999998093E+01 0. -1.
</event>
<event>
10   0  0.1583500E-03  0.1840054E+03  0.7818609E-02  0.1175491E+00
        2   -1    0    0  503    0  0.00000000000E+00  0.00000000000E+00  0.74152337567E+03  0.74152337567E+03  0.00000000000E+00 0.  1.
       21   -1    0    0  501  503  0.00000000000E+00  0.00000000000E+00 -0.43825923149E+02  0.43825923149E+02  0.25500000920E-02 0.  1.
       25    2    1    2    0    0 -0.51293553685E+02 -0.41707738879E+02  0.47954843563E+03  0.49996014654E+03  0.12499152722E+03 0.  0.
        6    2    1    2  501    0  0.51293553685E+02  0.41707738879E+02  0.21814901689E+03  0.28538915229E+03  0.17171898713E+03 0.  0.
       24    2    4    4    0    0  0.89493387863E+02 -0.62970164552E+00  0.10798224985E+03  0.16125014650E+03  0.79573742318E+02 0.  0.
      -11    1    5    5    0    0  0.52808309029E+02 -0.18210967209E+02  0.12185683296E+02  0.57173837608E+02  0.51099999109E-03 0.  1.
       12    1    5    5    0    0  0.36685078834E+02  0.17581265563E+02  0.95796566556E+02  0.10407630889E+03  0.00000000000E+00 0. -1.
        5    1    4    4  501    0 -0.38199834178E+02  0.42337440525E+02  0.11016676703E+03  0.12413900579E+03  0.46999998093E+01 0. -1.
        5    1    3    3  502    0  0.25026088855E+02  0.18413345319E+02  0.46500830452E+02  0.56122844191E+02  0.46999998093E+01 0. -1.
       -5    1    3    3    0  502 -0.76319642540E+02 -0.60121084198E+02  0.43304760518E+03  0.44383730234E+03  0.46999998093E+01 0. -1.
</event>
<event>
10   0  0.1583500E-03  0.2008037E+03  0.7818609E-02  0.1158235E+00
        2   -1    0    0  503    0  0.00000000000E+00  0.00000000000E+00  0.12727504409E+04  0.12727504409E+04  0.00000000000E+00 0.  1.
       21   -1    0    0  501  503  0.00000000000E+00  0.00000000000E+00 -0.64653763826E+02  0.64653763826E+02  0.25500000920E-02 0.  1.
       25    2    1    2    0    0 -0.37685865918E+02 -0.95582320247E+02  0.10951026019E+04  0.11069919613E+04  0.12500115711E+03 0.  0.
        6    2    1    2  501    0  0.37685865918E+02  0.95582320247E+02  0.11299407524E+03  0.23041224349E+03  0.17252807446E+03 0.  0.
       24    2    4    4    0    0  0.17331347003E+01  0.11299161409E+03  0.31125065280E+02  0.13919652563E+03  0.75078588473E+02 0.  0.
      -11    1    5    5    0    0  0.12297351627E+02  0.24596242827E+02 -0.22271242572E+02  0.35386554851E+02  0.51099999109E-03 0.  1.
       12    1    5    5    0    0 -0.10564216926E+02  0.88395371266E+02  0.53396307853E+02  0.10380997078E+03  0.00000000000E+00 0. -1.
        5    1    4    4  501    0  0.35952731217E+02 -0.17409293847E+02  0.81869009964E+02  0.91215717861E+02  0.46999998093E+01 0. -1.
        5    1    3    3  502    0  0.23684958007E+02  0.12095841109E+02  0.40000471628E+03  0.40091538964E+03  0.46999998093E+01 0.  1.
       -5    1    3    3    0  502 -0.61370823925E+02 -0.10767816136E+03  0.69509788558E+03  0.70607657163E+03  0.46999998093E+01 0.  1.
</event>
<event>
10   0  0.1583500E-03  0.1804796E+03  0.7818609E-02  0.1180760E+00
        2   -1    0    0  503    0  0.00000000000E+00  0.00000000000E+00  0.25590047576E+04  0.25590047576E+04  0.00000000000E+00 0. -1.
       21   -1    0    0  501  503  0.00000000000E+00  0.00000000000E+00 -0.13034561477E+02  0.13034561477E+02  0.25500000920E-02 0. -1.
       25    2    1    2    0    0  0.37020220180E+02  0.26666119316E+02  0.17852932762E+04  0.17902450714E+04  0.12499502086E+03 0.  0.
        6    2    1    2  501    0 -0.37020220180E+02 -0.26666119316E+02  0.76067691997E+03  0.78179424766E+03  0.17461755490E+03 0.  0.
       24    2    4    4    0    0 -0.58799684834E+02 -0.26224653115E+01  0.73139972442E+03  0.73784329140E+03  0.77478290678E+02 0.  0.
      -15    1    5    5    0    0  0.77602873384E+01  0.18705091504E+02  0.74098945746E+02  0.76836931206E+02  0.17769999504E+01 0.  1.
       16    1    5    5    0    0 -0.66559972172E+02 -0.21327556815E+02  0.65730077867E+03  0.66100636019E+03  0.00000000000E+00 0. -1.
        5    1    4    4  501    0  0.21779464654E+02 -0.24043654004E+02  0.29277195552E+02  0.43950956259E+02  0.46999998093E+01 0. -1.
        5    1    3    3  502    0 -0.83526514447E+01 -0.43217710191E+02  0.88021873624E+03  0.88133118116E+03  0.46999998093E+01 0. -1.
       -5    1    3    3    0  502  0.45372871624E+02  0.69883829507E+02  0.90507453992E+03  0.90891389027E+03  0.46999998093E+01 0. -1.
</event>
<event>
10   0  0.1583500E-03  0.1740711E+03  0.7818609E-02  0.1187511E+00
       21   -1    0    0  501  503  0.00000000000E+00  0.00000000000E+00  0.20178802509E+04  0.20178802509E+04  0.00000000000E+00 0. -1.
        2   -1    0    0  503    0  0.00000000000E+00  0.00000000000E+00 -0.11686869963E+02  0.11686870241E+02  0.25500000920E-02 0. -1.
       25    2    1    2    0    0  0.23147808156E+02 -0.10546383654E+02  0.66489322018E+03  0.67701882807E+03  0.12499780833E+03 0.  0.
        6    2    1    2  501    0 -0.23147808156E+02  0.10546383654E+02  0.13413001608E+04  0.13525482931E+04  0.17220254532E+03 0.  0.
       24    2    4    4    0    0  0.79019358513E+01 -0.41652816995E+02  0.10949510216E+04  0.10987790445E+04  0.81241930144E+02 0.  0.
      -15    1    5    5    0    0  0.16085077688E+02  0.44891300991E+00  0.42882435406E+02  0.45836581922E+02  0.17769999504E+01 0.  1.
       16    1    5    5    0    0 -0.81831418370E+01 -0.42101730005E+02  0.10520685862E+04  0.10529424626E+04  0.00000000000E+00 0. -1.
        5    1    4    4  501    0 -0.31049744008E+02  0.52199200649E+02  0.24634913921E+03  0.25376924861E+03  0.46999998093E+01 0. -1.
        5    1    3    3  502    0 -0.35388073395E+02 -0.22310362984E+02  0.49669788721E+03  0.49847863464E+03  0.46999998093E+01 0. -1.
       -5    1    3    3    0  502  0.58535881551E+02  0.11763979330E+02  0.16819533297E+03  0.17854019343E+03  0.46999998093E+01 0. -1.
</event>
<event>
10   0  0.1583500E-03  0.1676257E+03  0.7818609E-02  0.1191608E+00
       21   -1    0    0  501  503  0.00000000000E+00  0.00000000000E+00  0.19057477004E+03  0.19057477004E+03  0.00000000000E+00 0.  1.
       -2   -1    0    0    0  501  0.00000000000E+00  0.00000000000E+00 -0.14427698792E+03  0.14427698794E+03  0.25500000920E-02 0.  1.
       25    2    1    2    0    0  0.36814403570E+02 -0.67478685921E+01 -0.52083531397E+02  0.14048803613E+03  0.12499343988E+03 0.  0.
       -6    2    1    2    0  503 -0.36814403570E+02  0.67478685921E+01  0.98381313517E+02  0.19436372185E+03  0.16339381715E+03 0.  0.
      -24    2    4    4    0    0 -0.53105710414E+01  0.14334093675E+01 -0.86536316189E+01  0.82563433752E+02  0.81924223680E+02 0.  0.
       11    1    5    5    0    0  0.37742716860E+01  0.35927252883E+02  0.15682700950E+02  0.39382226141E+02  0.51099999109E-03 0. -1.
      -12    1    5    5    0    0 -0.90848427274E+01 -0.34493843516E+02 -0.24336332569E+02  0.43181207611E+02  0.00000000000E+00 0.  1.
       -5    1    4    4    0  503 -0.31503832528E+02  0.53144592247E+01  0.10703494514E+03  0.11180028810E+03  0.46999998093E+01 0.  1.
        5    1    3    3  502    0  0.79023888958E+02  0.16571110260E+02 -0.23457616245E+02  0.84212389109E+02  0.46999998093E+01 0.  1.
       -5    1    3    3    0  502 -0.42209485389E+02 -0.23318978852E+02 -0.28625915152E+02  0.56275647024E+02  0.46999998093E+01 0.  1.
</event>
<event>
10   0  0.1583500E-03  0.1836163E+03  0.7818609E-02  0.1176090E+00
       21   -1    0    0  501  503  0.00000000000E+00  0.00000000000E+00  0.16088803160E+03  0.16088803160E+03  0.00000000000E+00 0. -1.
        4   -1    0    0  503    0  0.00000000000E+00  0.00000000000E+00 -0.22374768488E+03  0.22375128914E+03  0.12699999809E+01 0. -1.
       25    2    1    2    0    0 -0.90666271037E+01  0.63245320058E+02 -0.12783438856E+03  0.18986592255E+03  0.12500105364E+03 0.  0.
        6    2    1    2  501    0  0.90666271037E+01 -0.63245320058E+02  0.64974735286E+02  0.19477339819E+03  0.17214176187E+03 0.  0.
       24    2    4    4    0    0  0.42991721668E+02 -0.39482386201E+02  0.10217153352E+03  0.13890497362E+03  0.73813430237E+02 0.  0.
      -15    1    5    5    0    0  0.32363667089E+02  0.15876720635E+02  0.27655765304E+02  0.45469509442E+02  0.17769999504E+01 0.  1.
       16    1    5    5    0    0  0.10628054579E+02 -0.55359106836E+02  0.74515768215E+02  0.93435464180E+02  0.00000000000E+00 0. -1.
        5    1    4    4  501    0 -0.33925094564E+02 -0.23762933857E+02 -0.37196798233E+02  0.55868424567E+02  0.46999998093E+01 0. -1.
        5    1    3    3  502    0 -0.13017024515E+02 -0.10112929705E+02 -0.11360218063E+03  0.11488803122E+03  0.46999998093E+01 0.  1.
       -5    1    3    3    0  502  0.39503974113E+01  0.73358249763E+02 -0.14232207931E+02  0.74977891334E+02  0.46999998093E+01 0.  1.
</event>
<event>
10   0  0.1583500E-03  0.2036362E+03  0.7818609E-02  0.1154345E+00
       21   -1    0    0  501  503  0.00000000000E+00  0.00000000000E+00  0.24332232790E+02  0.24332232790E+02  0.00000000000E+00 0.  1.
        2   -1    0    0  503    0  0.00000000000E+00  0.00000000000E+00 -0.15919216110E+04  0.15919216110E+04  0.25500000920E-02 0.  1.
       25    2    1    2    0    0 -0.11091438726E+03 -0.31005903403E+02 -0.97373494959E+03  0.98845548943E+03  0.12498453977E+03 0.  0.
        6    2    1    2  501    0  0.11091438726E+03  0.31005903403E+02 -0.59385442867E+03  0.62779835441E+03  0.16794143028E+03 0.  0.
       24    2    4    4    0    0  0.84552118296E+02  0.68995430236E+02 -0.28446389432E+03  0.31493613855E+03  0.79722230830E+02 0.  0.
      -11    1    5    5    0    0  0.33866726276E+02  0.40353673177E+02 -0.47528383066E+02  0.70952951205E+02  0.51099999109E-03 0.  1.
       12    1    5    5    0    0  0.50685392020E+02  0.28641757059E+02 -0.23693551126E+03  0.24398318734E+03  0.00000000000E+00 0. -1.
        5    1    4    4  501    0  0.26362268961E+02 -0.37989526833E+02 -0.30939053435E+03  0.31286221586E+03  0.46999998093E+01 0. -1.
        5    1    3    3  502    0 -0.16877844832E+02  0.21351680188E+02 -0.56769702360E+03  0.56836850414E+03  0.46999998093E+01 0. -1.
       -5    1    3    3    0  502 -0.94036542425E+02 -0.52357583591E+02 -0.40603792599E+03  0.42008698529E+03  0.46999998093E+01 0. -1.
</event>
<event>
10   0  0.1583500E-03  0.1849324E+03  0.7818609E-02  0.1174206E+00
       21   -1    0    0  501  503  0.00000000000E+00  0.00000000000E+00  0.24181309395E+03  0.24181309395E+03  0.00000000000E+00 0. -1.
        2   -1    0    0  503    0  0.00000000000E+00  0.00000000000E+00 -0.11244909619E+03  0.11244909622E+03  0.25500000920E-02 0.  1.
       25    2    1    2    0    0 -0.66474391583E+02 -0.22842652404E+02  0.73100191938E+02  0.16096029036E+03  0.12499578196E+03 0.  0.
        6    2    1    2  501    0  0.66474391583E+02  0.22842652404E+02  0.56263805824E+02  0.19330189981E+03  0.17105372582E+03 0.  0.
       24    2    4    4    0    0  0.50966218037E+02 -0.51520801828E+02  0.39032603446E+02  0.11526709279E+03  0.80690830623E+02 0.  0.
      -15    1    5    5    0    0 -0.17964011968E+02 -0.21319757007E+02  0.27376747666E+02  0.39113703563E+02  0.17769999504E+01 0.  1.
       16    1    5    5    0    0  0.68930230006E+02 -0.30201044822E+02  0.11655855780E+02  0.76153389228E+02  0.00000000000E+00 0. -1.
        5    1    4    4  501    0  0.15508173545E+02  0.74363454233E+02  0.17231202378E+02  0.78034807014E+02  0.46999998093E+01 0. -1.
        5    1    3    3  502    0  0.45396507653E+01  0.71652900259E+01 -0.30347716158E+02  0.31859436348E+02  0.46999998093E+01 0. -1.
       -5    1    3    3    0  502 -0.71014042348E+02 -0.30007942430E+02  0.10344790810E+03  0.12910085401E+03  0.46999998093E+01 0. -1.
</event>
<event>
10   0  0.1583500E-03  0.2260060E+03  0.7818609E-02  0.1135954E+00
       21   -1    0    0  501  503  0.00000000000E+00  0.00000000000E+00  0.29245641211E+03  0.29245641211E+03  0.00000000000E+00 0. -1.
        2   -1    0    0  503    0  0.00000000000E+00  0.00000000000E+00 -0.19759355018E+04  0.19759355018E+04  0.25500000920E-02 0. -1.
       25    2    1    2    0    0  0.80135954358E+02  0.12321408688E+03 -0.19267221026E+04  0.19363589614E+04  0.12499793733E+03 0.  0.
        6    2    1    2  501    0 -0.80135954358E+02 -0.12321408688E+03  0.24324301291E+03  0.33203295253E+03  0.17168353400E+03 0.  0.
       24    2    4    4    0    0 -0.99550270403E+02 -0.14141183670E+03  0.17510772775E+03  0.25873506137E+03  0.79834527429E+02 0.  0.
      -15    1    5    5    0    0 -0.58208380435E+02 -0.56327602923E+02  0.31832940000E+02  0.87048883978E+02  0.17769999504E+01 0.  1.
       16    1    5    5    0    0 -0.41341889968E+02 -0.85084233775E+02  0.14327478775E+03  0.17168617740E+03  0.00000000000E+00 0. -1.
        5    1    4    4  501    0  0.19414316045E+02  0.18197749815E+02  0.68135285156E+02  0.73297891152E+02  0.46999998093E+01 0. -1.
        5    1    3    3  502    0  0.10260870633E+03  0.12700268438E+03 -0.18089841600E+04  0.18163435825E+04  0.46999998093E+01 0. -1.
       -5    1    3    3    0  502 -0.22472751967E+02 -0.37885975001E+01 -0.11773794255E+03  0.12001537888E+03  0.46999998093E+01 0. -1.
</event>
<event>
10   0  0.1583500E-03  0.1959415E+03  0.7818609E-02  0.1162431E+00
       21   -1    0    0  501  503  0.00000000000E+00  0.00000000000E+00  0.16092295334E+03  0.16092295334E+03  0.00000000000E+00 0.  1.
       -4   -1    0    0    0  501  0.00000000000E+00  0.00000000000E+00 -0.23424109057E+03  0.23424453337E+03  0.12699999809E+01 0.  1.
       25    2    1    2    0    0 -0.85326890687E+02  0.45184607934E+02 -0.11431559787E+03  0.19498291563E+03  0.12501181706E+03 0.  0.
       -6    2    1    2    0  503  0.85326890687E+02 -0.45184607934E+02  0.40997460637E+02  0.20018457108E+03  0.17050144765E+03 0.  0.
      -24    2    4    4    0    0  0.34980356862E+02 -0.36661193124E+02  0.90239516579E+02  0.12909102608E+03  0.77159926227E+02 0.  0.
       13    1    5    5    0    0 -0.21690434185E+02 -0.20335664228E+02  0.14447041956E+02  0.33056653793E+02  0.10565999895E+00 0. -1.
      -14    1    5    5    0    0  0.56670791047E+02 -0.16325528896E+02  0.75792474623E+02  0.96034372290E+02  0.00000000000E+00 0.  1.
       -5    1    4    4    0  503  0.50346533825E+02 -0.85234148097E+01 -0.49242055942E+02  0.71093544993E+02  0.46999998093E+01 0.  1.
        5    1    3    3  502    0 -0.10710566773E+03  0.83091642155E+01 -0.52572049561E+02  0.11969367846E+03  0.46999998093E+01 0. -1.
       -5    1    3    3    0  502  0.21778777041E+02  0.36875443718E+02 -0.61743548308E+02  0.75289237177E+02  0.46999998093E+01 0. -1.
</event>
<event>
10   0  0.1583500E-03  0.1992136E+03  0.7818609E-02  0.1159314E+00
        2   -1    0    0  503    0  0.00000000000E+00  0.00000000000E+00  0.17466124825E+04  0.17466124825E+04  0.00000000000E+00 0. -1.
       21   -1    0    0  501  503  0.00000000000E+00  0.00000000000E+00 -0.20200027014E+02  0.20200027014E+02  0.25500000920E-02 0.  1.
       25    2    1    2    0    0 -0.99986373335E+01  0.10194427510E+03  0.10249729667E+04  0.10376325604E+04  0.12497655724E+03 0.  0.
        6    2    1    2  501    0  0.99986373335E+01 -0.10194427510E+03  0.70143948875E+03  0.72917994913E+03  0.17086086112E+03 0.  0.
       24    2    4    4    0    0  0.52060199368E+02 -0.11997033341E+03  0.53808859351E+03  0.55947515028E+03  0.79812054587E+02 0.  0.
      -11    1    5    5    0    0 -0.13751728968E+02 -0.57800338417E+02  0.27178101351E+03  0.27819940416E+03  0.51099999109E-03 0.  1.
       12    1    5    5    0    0  0.65811928336E+02 -0.62169994997E+02  0.26630758000E+03  0.28127574612E+03  0.00000000000E+00 0. -1.
        5    1    4    4  501    0 -0.42061562035E+02  0.18026058310E+02  0.16335089524E+03  0.16970479885E+03  0.46999998093E+01 0. -1.
        5    1    3    3  502    0 -0.26496829169E+02 -0.16365479938E+02  0.40606185603E+03  0.40728151421E+03  0.46999998093E+01 0. -1.
       -5    1    3    3    0  502  0.16498191835E+02  0.11830975504E+03  0.61891111067E+03  0.63035104615E+03  0.46999998093E+01 0. -1.
</event>
<event>
10   0  0.1583500E-03  0.2440668E+03  0.7818609E-02  0.1122669E+00
       21   -1    0    0  501  503  0.00000000000E+00  0.00000000000E+00  0.87489780136E+02  0.87489780136E+02  0.00000000000E+00 0.  1.
        2   -1    0    0  503    0  0.00000000000E+00  0.00000000000E+00 -0.10440048875E+04  0.10440048875E+04  0.25500000920E-02 0. -1.
       25    2    1    2    0    0 -0.21073691260E+02  0.17041867726E+03 -0.82968767818E+03  0.85644233969E+03  0.12500084746E+03 0.  0.
        6    2    1    2  501    0  0.21073691260E+02 -0.17041867726E+03 -0.12682742923E+03  0.27505232799E+03  0.17344151841E+03 0.  0.
       24    2    4    4    0    0  0.62367678759E+00 -0.19055667985E+03 -0.12968885068E+03  0.24582870791E+03  0.85441900928E+02 0.  0.
      -13    1    5    5    0    0 -0.86493775017E+01 -0.88446991322E+02 -0.11892794485E+02  0.89661205266E+02  0.10565999895E+00 0.  1.
       14    1    5    5    0    0  0.92730542893E+01 -0.10210968852E+03 -0.11779605619E+03  0.15616750264E+03  0.00000000000E+00 0. -1.
        5    1    4    4  501    0  0.20450014472E+02  0.20138002584E+02  0.28614214522E+01  0.29223620085E+02  0.46999998093E+01 0. -1.
        5    1    3    3  502    0  0.13640617519E+02  0.19701360281E+02 -0.38178317039E+03  0.38256331402E+03  0.46999998093E+01 0.  1.
       -5    1    3    3    0  502 -0.34714308779E+02  0.15071731698E+03 -0.44790450779E+03  0.47387902567E+03  0.46999998093E+01 0.  1.
</event>
<event>
10   0  0.1583500E-03  0.1866470E+03  0.7818609E-02  0.1173014E+00
        2   -1    0    0  503    0  0.00000000000E+00  0.00000000000E+00  0.25920609268E+04  0.25920609268E+04  0.00000000000E+00 0. -1.
       21   -1    0    0  501  503  0.00000000000E+00  0.00000000000E+00 -0.11271680967E+02  0.11271680967E+02  0.25500000920E-02 0. -1.
       25    2    1    2    0    0  0.68897651573E+02  0.12957785627E+02  0.14701589867E+04  0.14771280679E+04  0.12500036849E+03 0.  0.
        6    2    1    2  501    0 -0.68897651573E+02 -0.12957785627E+02  0.11106302591E+04  0.11262045399E+04  0.17298064221E+03 0.  0.
       24    2    4    4    0    0 -0.90276664436E+02 -0.55421235465E+02  0.66204415062E+03  0.67508172567E+03  0.78813003280E+02 0.  0.
      -15    1    5    5    0    0  0.12250242999E+02  0.19336970573E+01  0.36197042921E+02  0.38303932995E+02  0.17769999504E+01 0.  1.
       16    1    5    5    0    0 -0.10252690744E+03 -0.57354932522E+02  0.62584710770E+03  0.63677779268E+03  0.00000000000E+00 0. -1.
        5    1    4    4  501    0  0.21379012863E+02  0.42463449837E+02  0.44858610851E+03  0.45112281422E+03  0.46999998093E+01 0. -1.
        5    1    3    3  502    0  0.17051534598E+02  0.47146679395E+01  0.24879917303E+02  0.30888237391E+02  0.46999998093E+01 0. -1.
       -5    1    3    3    0  502  0.51846116974E+02  0.82431176877E+01  0.14452790694E+04  0.14462398305E+04  0.46999998093E+01 0. -1.
</event>
<event>
10   0  0.1583500E-03  0.1872573E+03  0.7818609E-02  0.1171122E+00
       21   -1    0    0  501  503  0.00000000000E+00  0.00000000000E+00  0.16723168289E+02  0.16723168289E+02  0.00000000000E+00 0. -1.
       -2   -1    0    0    0  501  0.00000000000E+00  0.00000000000E+00 -0.30463771959E+04  0.30463771959E+04  0.25500000920E-02 0. -1.
       25    2    1    2    0    0  0.29724790770E+02 -0.73805717674E+02 -0.24384792198E+04  0.24429770182E+04  0.12499983659E+03 0.  0.
       -6    2    1    2    0  503 -0.29724790770E+02  0.73805717674E+02 -0.59117480779E+03  0.62012334592E+03  0.16951242917E+03 0.  0.
      -24    2    4    4    0    0 -0.69195765658E+02  0.39180905190E+02 -0.51758622282E+03  0.52960149588E+03  0.79114152162E+02 0.  0.
       11    1    5    5    0    0 -0.63789680978E+02  0.56489326150E+02 -0.48390401845E+03  0.49134841655E+03  0.51099999109E-03 0. -1.
      -12    1    5    5    0    0 -0.54060846802E+01 -0.17308420960E+02 -0.33682204369E+02  0.38253079338E+02  0.00000000000E+00 0.  1.
       -5    1    4    4    0  503  0.39470974888E+02  0.34624812484E+02 -0.73588584973E+02  0.90521850040E+02  0.46999998093E+01 0.  1.
        5    1    3    3  502    0  0.13897585613E+01  0.14036728186E+02 -0.39298791198E+02  0.42017212602E+02  0.46999998093E+01 0.  1.
       -5    1    3    3    0  502  0.28335032208E+02 -0.87842445860E+02 -0.23991804286E+04  0.24009598056E+04  0.46999998093E+01 0.  1.
</event>
<event>
10   0  0.1583500E-03  0.2133611E+03  0.7818609E-02  0.1146500E+00
       21   -1    0    0  501  503  0.00000000000E+00  0.00000000000E+00  0.16112276624E+03  0.16112276624E+03  0.00000000000E+00 0.  1.
        2   -1    0    0  503    0  0.00000000000E+00  0.00000000000E+00 -0.61914693215E+03  0.61914693216E+03  0.25500000920E-02 0. -1.
       25    2    1    2    0    0  0.59279606432E+02 -0.11189337011E+03 -0.52685153953E+03  0.55608188155E+03  0.12498126370E+03 0.  0.
        6    2    1    2  501    0 -0.59279606432E+02  0.11189337011E+03  0.68827373607E+02  0.22418781685E+03  0.17172295086E+03 0.  0.
       24    2    4    4    0    0 -0.98594948817E+02  0.77919924922E+02  0.39455222895E+02  0.16431541619E+03  0.98236259863E+02 0.  0.
      -13    1    5    5    0    0 -0.45334355819E+02  0.93289515475E+02  0.30891158622E+02  0.10822389921E+03  0.10565999895E+00 0.  1.
       14    1    5    5    0    0 -0.53260592998E+02 -0.15369590553E+02  0.85640642724E+01  0.56091516980E+02  0.00000000000E+00 0. -1.
        5    1    4    4  501    0  0.39315342385E+02  0.33973445185E+02  0.29372150712E+02  0.59872400655E+02  0.46999998093E+01 0. -1.
        5    1    3    3  502    0  0.50141611121E+02 -0.15877374398E+02 -0.62614124714E+02  0.81907818891E+02  0.46999998093E+01 0.  1.
       -5    1    3    3    0  502  0.91379953111E+01 -0.96015995709E+02 -0.46423741481E+03  0.47417406266E+03  0.46999998093E+01 0.  1.
</event>
<event>
10   0  0.1583500E-03  0.2105364E+03  0.7818609E-02  0.1148921E+00
       21   -1    0    0  501  503  0.00000000000E+00  0.00000000000E+00  0.10960610646E+03  0.10960610646E+03  0.00000000000E+00 0.  1.
        2   -1    0    0  503    0  0.00000000000E+00  0.00000000000E+00 -0.43740921990E+03  0.43740921991E+03  0.25500000920E-02 0. -1.
       25    2    1    2    0    0  0.12075282625E+03  0.18690936181E+02 -0.28163482344E+03  0.33147625490E+03  0.12501095010E+03 0.  0.
        6    2    1    2  501    0 -0.12075282625E+03 -0.18690936181E+02 -0.46168290006E+02  0.21553907147E+03  0.17144965496E+03 0.  0.
       24    2    4    4    0    0 -0.63504713760E+02 -0.50382308457E+02  0.26984589798E+02  0.11727858459E+03  0.80342222031E+02 0.  0.
      -15    1    5    5    0    0  0.19577630556E+01 -0.48193312012E+02  0.16107012788E+02  0.50882430648E+02  0.17769999504E+01 0.  1.
       16    1    5    5    0    0 -0.65462476816E+02 -0.21889964453E+01  0.10877577010E+02  0.66396153939E+02  0.00000000000E+00 0. -1.
        5    1    4    4  501    0 -0.57248112492E+02  0.31691372277E+02 -0.73152879803E+02  0.98260486882E+02  0.46999998093E+01 0. -1.
        5    1    3    3  502    0  0.36676855581E+02  0.44794936865E+02 -0.31108980528E+02  0.65891097819E+02  0.46999998093E+01 0.  1.
       -5    1    3    3    0  502  0.84075970670E+02 -0.26104000685E+02 -0.25052584291E+03  0.26558515708E+03  0.46999998093E+01 0.  1.
</event>
<event>
10   0  0.1583500E-03  0.2967278E+03  0.7818609E-02  0.1090101E+00
       21   -1    0    0  501  503  0.00000000000E+00  0.00000000000E+00  0.15364965838E+03  0.15364965838E+03  0.00000000000E+00 0.  1.
        2   -1    0    0  503    0  0.00000000000E+00  0.00000000000E+00 -0.67193481042E+03  0.67193481042E+03  0.25500000920E-02 0. -1.
       25    2    1    2    0    0  0.21341334588E+03 -0.11438439341E+03 -0.44193361647E+03  0.51919099360E+03  0.12499968326E+03 0.  0.
        6    2    1    2  501    0 -0.21341334588E+03  0.11438439341E+03 -0.76351535567E+02  0.30639347520E+03  0.17151780958E+03 0.  0.
       24    2    4    4    0    0 -0.99440635232E+02  0.35385628298E+02  0.24912809555E+02  0.13461704709E+03  0.79752859897E+02 0.  0.
      -13    1    5    5    0    0 -0.54971833803E+02  0.45079805426E+02 -0.16612034098E+02  0.73007275047E+02  0.10565999895E+00 0.  1.
       14    1    5    5    0    0 -0.44468801429E+02 -0.96941771275E+01  0.41524843653E+02  0.61609772043E+02  0.00000000000E+00 0. -1.
        5    1    4    4  501    0 -0.11397271065E+03  0.78998765116E+02 -0.10126434512E+03  0.17177642811E+03  0.46999998093E+01 0. -1.
        5    1    3    3  502    0  0.56778294324E+02  0.19009069597E+02 -0.57533043099E+02  0.83170069614E+02  0.46999998093E+01 0. -1.
       -5    1    3    3    0  502  0.15663505156E+03 -0.13339346301E+03 -0.38440057337E+03  0.43602092399E+03  0.46999998093E+01 0. -1.
</event>
<event>
10   0  0.1583500E-03  0.2449579E+03  0.7818609E-02  0.1121813E+00
       21   -1    0    0  501  503  0.00000000000E+00  0.00000000000E+00  0.10707272707E+03  0.10707272707E+03  0.00000000000E+00 0.  1.
        2   -1    0    0  503    0  0.00000000000E+00  0.00000000000E+00 -0.94009375274E+03  0.94009375274E+03  0.25500000920E-02 0. -1.
       25    2    1    2    0    0 -0.13185899459E+03 -0.11422771412E+03 -0.76269313070E+03  0.79231278028E+03  0.12499586009E+03 0.  0.
        6    2    1    2  501    0  0.13185899459E+03  0.11422771412E+03 -0.70327894960E+02  0.25485369954E+03  0.17195822234E+03 0.  0.
       24    2    4    4    0    0  0.14603463194E+03  0.45451116743E+02 -0.67951492963E+02  0.18443419708E+03  0.77502580085E+02 0.  0.
      -11    1    5    5    0    0  0.62771864239E+02 -0.11954015392E+02 -0.51287739335E+02  0.81936790457E+02  0.51099999109E-03 0.  1.
       12    1    5    5    0    0  0.83262767698E+02  0.57405132135E+02 -0.16663753628E+02  0.10249740663E+03  0.00000000000E+00 0. -1.
        5    1    4    4  501    0 -0.14175637342E+02  0.68776597378E+02 -0.23764019967E+01  0.70419502452E+02  0.46999998093E+01 0. -1.
        5    1    3    3  502    0 -0.11049785817E+03 -0.10300020029E+03 -0.38175712514E+03  0.41058423072E+03  0.46999998093E+01 0.  1.
       -5    1    3    3    0  502 -0.21361136421E+02 -0.11227513828E+02 -0.38093600556E+03  0.38172854956E+03  0.46999998093E+01 0.  1.
</event>
<event>
10   0  0.1583500E-03  0.1829117E+03  0.7818609E-02  0.1176390E+00
        2   -1    0    0  503    0  0.00000000000E+00  0.00000000000E+00  0.84887152331E+03  0.84887152332E+03  0.00000000000E+00 0. -1.
       21   -1    0    0  501  503  0.00000000000E+00  0.00000000000E+00 -0.56911349882E+02  0.56911349882E+02  0.25500000920E-02 0. -1.
       25    2    1    2    0    0 -0.35276150329E+02 -0.55001218809E+02  0.67292539687E+03  0.68754911963E+03  0.12500264516E+03 0.  0.
        6    2    1    2  501    0  0.35276150329E+02  0.55001218809E+02  0.11903477656E+03  0.21823375357E+03  0.17084247807E+03 0.  0.
       24    2    4    4    0    0  0.73556320312E+02  0.65266173027E+02  0.47333327464E+02  0.13617323627E+03  0.81440166918E+02 0.  0.
      -13    1    5    5    0    0 -0.10422547713E+02  0.33974407544E+02  0.26046738402E+02  0.44060567565E+02  0.10565999895E+00 0.  1.
       14    1    5    5    0    0  0.83978868024E+02  0.31291765483E+02  0.21286589062E+02  0.92112668703E+02  0.00000000000E+00 0. -1.
        5    1    4    4  501    0 -0.38280169982E+02 -0.10264954218E+02  0.71701449093E+02  0.82060517298E+02  0.46999998093E+01 0. -1.
        5    1    3    3  502    0  0.29881757254E+02  0.31071169044E+01  0.50020040732E+02  0.58537749061E+02  0.46999998093E+01 0.  1.
       -5    1    3    3    0  502 -0.65157907583E+02 -0.58108335713E+02  0.62290535614E+03  0.62901137057E+03  0.46999998093E+01 0.  1.
</event>
<event>
10   0  0.1583500E-03  0.2267539E+03  0.7818609E-02  0.1135445E+00
        2   -1    0    0  503    0  0.00000000000E+00  0.00000000000E+00  0.27547953871E+04  0.27547953871E+04  0.00000000000E+00 0.  1.
       21   -1    0    0  501  503  0.00000000000E+00  0.00000000000E+00 -0.18418220208E+02  0.18418220208E+02  0.25500000920E-02 0.  1.
       25    2    1    2    0    0  0.12805781671E+03  0.73397385167E+02  0.17725666568E+04  0.17830883507E+04  0.12500213164E+03 0.  0.
        6    2    1    2  501    0 -0.12805781671E+03 -0.73397385167E+02  0.96381051006E+03  0.99012525661E+03  0.17213757261E+03 0.  0.
       24    2    4    4    0    0 -0.95181023420E+02 -0.86167952811E+02  0.44421321307E+03  0.46931107480E+03  0.80269315150E+02 0.  0.
      -15    1    5    5    0    0 -0.93624844703E+02 -0.43128836132E+02  0.36336403742E+03  0.37770661825E+03  0.17769999504E+01 0.  1.
       16    1    5    5    0    0 -0.15561787166E+01 -0.43039116679E+02  0.80849175656E+02  0.91604456557E+02  0.00000000000E+00 0. -1.
        5    1    4    4  501    0 -0.32876793291E+02  0.12770567645E+02  0.51959729699E+03  0.52081418181E+03  0.46999998093E+01 0. -1.
        5    1    3    3  502    0  0.19814155920E+02 -0.26988454796E+02  0.14759805591E+03  0.15142078317E+03  0.46999998093E+01 0. -1.
       -5    1    3    3    0  502  0.10824366079E+03  0.10038583996E+03  0.16249686009E+04  0.16316675675E+04  0.46999998093E+01 0. -1.
</event>
<event>
10   0  0.1583500E-03  0.2035971E+03  0.7818609E-02  0.1155483E+00
        2   -1    0    0  503    0  0.00000000000E+00  0.00000000000E+00  0.22280249763E+04  0.22280249763E+04  0.00000000000E+00 0. -1.
       21   -1    0    0  501  503  0.00000000000E+00  0.00000000000E+00 -0.21244628583E+02  0.21244628583E+02  0.25500000920E-02 0. -1.
       25    2    1    2    0    0 -0.35276773587E+02  0.10267992248E+03  0.16146101313E+04  0.16230768635E+04  0.12500004578E+03 0.  0.
        6    2    1    2  501    0  0.35276773587E+02 -0.10267992248E+03  0.59217021638E+03  0.62619274136E+03  0.17223288574E+03 0.  0.
       24    2    4    4    0    0 -0.21152006026E+02 -0.73891066390E+02  0.19614031629E+03  0.22510076043E+03  0.79322327383E+02 0.  0.
      -15    1    5    5    0    0 -0.21770476185E+02 -0.33229712984E+02  0.17462162492E+03  0.17909225856E+03  0.17769999504E+01 0.  1.
       16    1    5    5    0    0  0.61847015971E+00 -0.40661353406E+02  0.21518691373E+02  0.46008501873E+02  0.00000000000E+00 0. -1.
        5    1    4    4  501    0  0.56428779612E+02 -0.28788856094E+02  0.39602990009E+03  0.40109198093E+03  0.46999998093E+01 0. -1.
        5    1    3    3  502    0  0.30016412442E+02  0.44603435528E+01  0.12194095293E+03  0.12574802456E+03  0.46999998093E+01 0.  1.
       -5    1    3    3    0  502 -0.65293186029E+02  0.98219578932E+02  0.14926691784E+04  0.14973288389E+04  0.46999998093E+01 0.  1.
</event>
<event>
10   0  0.1583500E-03  0.2526540E+03  0.7818609E-02  0.1116454E+00
       21   -1    0    0  501  503  0.00000000000E+00  0.00000000000E+00  0.22818594033E+03  0.22818594033E+03  0.00000000000E+00 0.  1.
        2   -1    0    0  503    0  0.00000000000E+00  0.00000000000E+00 -0.25238869956E+03  0.25238869957E+03  0.25500000920E-02 0.  1.
       25    2    1    2    0    0  0.17488131554E+03 -0.61892335242E+02 -0.40773816830E+02  0.22737780236E+03  0.12499610066E+03 0.  0.
        6    2    1    2  501    0 -0.17488131554E+03  0.61892335242E+02  0.16571057597E+02  0.25319683754E+03  0.17152231022E+03 0.  0.
       24    2    4    4    0    0 -0.41975191617E+02 -0.12465508185E+02 -0.23359471061E+02  0.95686000538E+02  0.81809780620E+02 0.  0.
      -11    1    5    5    0    0 -0.32255558166E+02  0.73768745861E+00  0.27409811505E+02  0.42335127050E+02  0.51099999109E-03 0.  1.
       12    1    5    5    0    0 -0.97196334516E+01 -0.13203195644E+02 -0.50769282566E+02  0.53350873488E+02  0.00000000000E+00 0. -1.
        5    1    4    4  501    0 -0.13290612392E+03  0.74357843427E+02  0.39930528658E+02  0.15751083700E+03  0.46999998093E+01 0. -1.
        5    1    3    3  502    0  0.14023276865E+03 -0.67037989380E+01  0.15271903214E+02  0.14129929706E+03  0.46999998093E+01 0.  1.
       -5    1    3    3    0  502  0.34648546892E+02 -0.55188536304E+02 -0.56045720044E+02  0.86078505299E+02  0.46999998093E+01 0.  1.
</event>
<event>
10   0  0.1583500E-03  0.2058038E+03  0.7818609E-02  0.1152982E+00
       21   -1    0    0  501  503  0.00000000000E+00  0.00000000000E+00  0.32836239111E+03  0.32836239111E+03  0.00000000000E+00 0.  1.
        4   -1    0    0  503    0  0.00000000000E+00  0.00000000000E+00 -0.11124143867E+03  0.11124868798E+03  0.12699999809E+01 0.  1.
       25    2    1    2    0    0  0.70122761738E+02  0.91418513328E+02  0.58568713980E+02  0.17981498393E+03  0.12501435076E+03 0.  0.
        6    2    1    2  501    0 -0.70122761738E+02 -0.91418513328E+02  0.15855223846E+03  0.25979609516E+03  0.17053050297E+03 0.  0.
       24    2    4    4    0    0  0.35394469352E+01 -0.10174565488E+03  0.11596788238E+03  0.17395736136E+03  0.80298865841E+02 0.  0.
      -13    1    5    5    0    0  0.38658081179E+02 -0.71017775780E+02  0.88208716012E+02  0.11966102315E+03  0.10565999895E+00 0.  1.
       14    1    5    5    0    0 -0.35118634244E+02 -0.30727879097E+02  0.27759166369E+02  0.54296338205E+02  0.00000000000E+00 0. -1.
        5    1    4    4  501    0 -0.73662208673E+02  0.10327141549E+02  0.42584356081E+02  0.85838733799E+02  0.46999998093E+01 0. -1.
        5    1    3    3  502    0  0.77050884042E+02  0.60320916281E+02 -0.15371567017E+02  0.99165653043E+02  0.46999998093E+01 0. -1.
       -5    1    3    3    0  502 -0.69281223036E+01  0.31097597047E+02  0.73940280997E+02  0.80649330889E+02  0.46999998093E+01 0. -1.
</event>
<event>
10   0  0.1583500E-03  0.1978202E+03  0.7818609E-02  0.1160965E+00
       21   -1    0    0  501  503  0.00000000000E+00  0.00000000000E+00  0.44158069751E+02  0.44158069751E+02  0.00000000000E+00 0.  1.
        2   -1    0    0  503    0  0.00000000000E+00  0.00000000000E+00 -0.34012669792E+04  0.34012669792E+04  0.25500000920E-02 0.  1.
       25    2    1    2    0    0 -0.38610893973E+02 -0.90054275675E+02 -0.31672751611E+04  0.31712541435E+04  0.12498128917E+03 0.  0.
        6    2    1    2  501    0  0.38610893973E+02  0.90054275675E+02 -0.18983374828E+03  0.27417090541E+03  0.17184952630E+03 0.  0.
       24    2    4    4    0    0 -0.37460373780E+02  0.75531375760E+02 -0.84264100715E+02  0.14315642956E+03  0.79278347143E+02 0.  0.
      -15    1    5    5    0    0 -0.37019601460E+02 -0.29962928663E+01 -0.28244069813E+02  0.46693831194E+02  0.17769999504E+01 0.  1.
       16    1    5    5    0    0 -0.44077231938E+00  0.78527668627E+02 -0.56020030903E+02  0.96462598361E+02  0.00000000000E+00 0. -1.
        5    1    4    4  501    0  0.76071267753E+02  0.14522899915E+02 -0.10556964756E+03  0.13101447586E+03  0.46999998093E+01 0. -1.
        5    1    3    3  502    0  0.21853732875E+02 -0.51109131260E+02 -0.51730945713E+03  0.52030845984E+03  0.46999998093E+01 0.  1.
       -5    1    3    3    0  502 -0.60464626848E+02 -0.38945144416E+02 -0.26499657040E+04  0.26509456837E+04  0.46999998093E+01 0.  1.
</event>
<event>
10   0  0.1583500E-03  0.2678961E+03  0.7818609E-02  0.1106660E+00
       21   -1    0    0  501  503  0.00000000000E+00  0.00000000000E+00  0.51797699430E+03  0.51797699430E+03  0.00000000000E+00 0.  1.
        2   -1    0    0  503    0  0.00000000000E+00  0.00000000000E+00 -0.17092253478E+03  0.17092253480E+03  0.25500000920E-02 0. -1.
       25    2    1    2    0    0  0.52523001660E+02 -0.19881247631E+03 -0.11969853746E+02  0.24094105158E+03  0.12499698596E+03 0.  0.
        6    2    1    2  501    0 -0.52523001660E+02  0.19881247631E+03  0.35902431327E+03  0.44795847752E+03  0.17170694110E+03 0.  0.
       24    2    4    4    0    0 -0.13785560913E+02  0.17301685302E+03  0.35234053123E+03  0.40070631950E+03  0.79352576661E+02 0.  0.
      -13    1    5    5    0    0  0.99137887454E+01  0.85643324720E+02  0.24803870700E+03  0.26259526578E+03  0.10565999895E+00 0.  1.
       14    1    5    5    0    0 -0.23699349658E+02  0.87373528303E+02  0.10430182423E+03  0.13811105372E+03  0.00000000000E+00 0. -1.
        5    1    4    4  501    0 -0.38737440747E+02  0.25795623286E+02  0.66837820398E+01  0.47252158013E+02  0.46999998093E+01 0. -1.
        5    1    3    3  502    0  0.86705096942E+02 -0.14631992889E+03 -0.35594433245E+02  0.17382850486E+03  0.46999998093E+01 0. -1.
       -5    1    3    3    0  502 -0.34182095283E+02 -0.52492547417E+02  0.23624579499E+02  0.67112546718E+02  0.46999998093E+01 0. -1.
</event>
<event>
10   0  0.1583500E-03  0.2247408E+03  0.7818609E-02  0.1137051E+00
       21   -1    0    0  501  503  0.00000000000E+00  0.00000000000E+00  0.35687588621E+02  0.35687588621E+02  0.00000000000E+00 0. -1.
        2   -1    0    0  503    0  0.00000000000E+00  0.00000000000E+00 -0.21448846470E+04  0.21448846470E+04  0.25500000920E-02 0. -1.
       25    2    1    2    0    0 -0.12525501694E+03 -0.72075920717E+02 -0.17243924496E+04  0.17349457198E+04  0.12499429005E+03 0.  0.
        6    2    1    2  501    0  0.12525501694E+03  0.72075920717E+02 -0.38480460880E+03  0.44562651591E+03  0.17211811966E+03 0.  0.
       24    2    4    4    0    0  0.32456187878E+02  0.89937746144E+02 -0.26689693144E+03  0.29444788693E+03  0.79519706940E+02 0.  0.
      -13    1    5    5    0    0  0.54355468886E+02  0.86452636576E+02 -0.21553427413E+03  0.23850285084E+03  0.10565999895E+00 0.  1.
       14    1    5    5    0    0 -0.21899281008E+02  0.34851095680E+01 -0.51362657306E+02  0.55945036088E+02  0.00000000000E+00 0. -1.
        5    1    4    4  501    0  0.92798829065E+02 -0.17861825427E+02 -0.11790767735E+03  0.15117862898E+03  0.46999998093E+01 0. -1.
        5    1    3    3  502    0  0.49277112904E+01 -0.45891421473E+02 -0.76371158455E+03  0.76511945425E+03  0.46999998093E+01 0. -1.
       -5    1    3    3    0  502 -0.13018272823E+03 -0.26184499245E+02 -0.96068086508E+03  0.96982626550E+03  0.46999998093E+01 0. -1.
</event>
<event>
10   0  0.1583500E-03  0.1806221E+03  0.7818609E-02  0.1179397E+00
       21   -1    0    0  501  503  0.00000000000E+00  0.00000000000E+00  0.49610080026E+02  0.49610080026E+02  0.00000000000E+00 0.  1.
        2   -1    0    0  503    0  0.00000000000E+00  0.00000000000E+00 -0.11838736628E+04  0.11838736628E+04  0.25500000920E-02 0. -1.
       25    2    1    2    0    0 -0.51301045238E+01 -0.55529737137E+02 -0.99770246203E+03  0.10070477164E+04  0.12500012263E+03 0.  0.
        6    2    1    2  501    0  0.51301045238E+01  0.55529737137E+02 -0.13656112074E+03  0.22643602644E+03  0.17179774356E+03 0.  0.
       24    2    4    4    0    0 -0.49268979817E+01 -0.24497533216E+02 -0.23179766557E+02  0.87213439284E+02  0.80277512148E+02 0.  0.
      -15    1    5    5    0    0  0.36877281386E+02 -0.35126096661E+01 -0.71672541258E+01  0.37773000538E+02  0.17769999504E+01 0.  1.
       16    1    5    5    0    0 -0.41804179368E+02 -0.20984923550E+02 -0.16012512431E+02  0.49440438746E+02  0.00000000000E+00 0. -1.
        5    1    4    4  501    0  0.10057002505E+02  0.80027270354E+02 -0.11338135419E+03  0.13922258716E+03  0.46999998093E+01 0. -1.
        5    1    3    3  502    0 -0.42232659197E+02 -0.20962728943E+02 -0.13934251267E+03  0.14717832498E+03  0.46999998093E+01 0. -1.
       -5    1    3    3    0  502  0.37102554673E+02 -0.34567008194E+02 -0.85835994936E+03  0.85986939141E+03  0.46999998093E+01 0. -1.
</event>
<event>
10   0  0.1583500E-03  0.2428700E+03  0.7818609E-02  0.1121391E+00
        2   -1    0    0  503    0  0.00000000000E+00  0.00000000000E+00  0.11365261089E+04  0.11365261089E+04  0.00000000000E+00 0.  1.
       21   -1    0    0  501  503  0.00000000000E+00  0.00000000000E+00 -0.60980441499E+02  0.60980441499E+02  0.25500000920E-02 0. -1.
       25    2    1    2    0    0  0.16439367726E+03  0.82873132893E+02  0.79920957058E+03  0.82961055490E+03  0.12499799125E+03 0.  0.
        6    2    1    2  501    0 -0.16439367726E+03 -0.82873132893E+02  0.27633609682E+03  0.36789599550E+03  0.15840640083E+03 0.  0.
       24    2    4    4    0    0 -0.70664900893E+02 -0.92589223249E+02  0.12351586415E+03  0.18829755608E+03  0.81446353199E+02 0.  0.
      -13    1    5    5    0    0 -0.54026764522E+02 -0.30939033104E+02  0.17731723469E+02  0.64734382173E+02  0.10565999895E+00 0.  1.
       14    1    5    5    0    0 -0.16638136371E+02 -0.61650190145E+02  0.10578414068E+03  0.12356317391E+03  0.00000000000E+00 0. -1.
        5    1    4    4  501    0 -0.93728776363E+02  0.97160903557E+01  0.15282023267E+03  0.17959843942E+03  0.46999998093E+01 0. -1.
        5    1    3    3  502    0 -0.44072177602E+01  0.25250334991E+02  0.26740472587E+03  0.26867151021E+03  0.46999998093E+01 0.  1.
       -5    1    3    3    0  502  0.16880089502E+03  0.57622797902E+02  0.53180484471E+03  0.56093904468E+03  0.46999998093E+01 0.  1.
</event>
<event>
10   0  0.1583500E-03  0.2362704E+03  0.7818609E-02  0.1127445E+00
        2   -1    0    0  503    0  0.00000000000E+00  0.00000000000E+00  0.19214330207E+03  0.19214330209E+03  0.00000000000E+00 0.  1.
       21   -1    0    0  501  503  0.00000000000E+00  0.00000000000E+00 -0.30263591359E+03  0.30263591359E+03  0.25500000920E-02 0.  1.
       25    2    1    2    0    0 -0.10516488997E+02  0.16590575390E+03  0.43850142599E+02  0.21256409598E+03  0.12500137669E+03 0.  0.
        6    2    1    2  501    0  0.10516488997E+02 -0.16590575390E+03 -0.15434275411E+03  0.28221511969E+03  0.16789393175E+03 0.  0.
       24    2    4    4    0    0  0.53100361115E+02 -0.15828902066E+03 -0.15227179339E+03  0.23865160668E+03  0.76764756844E+02 0.  0.
      -15    1    5    5    0    0  0.43542656050E+01 -0.11151269300E+03 -0.11966171404E+03  0.16363411583E+03  0.17769999504E+01 0.  1.
       16    1    5    5    0    0  0.48746095510E+02 -0.46776327666E+02 -0.32610079357E+02  0.75017490848E+02  0.00000000000E+00 0. -1.
        5    1    4    4  501    0 -0.42583872118E+02 -0.76167332393E+01 -0.20709607212E+01  0.43563513016E+02  0.46999998093E+01 0. -1.
        5    1    3    3  502    0  0.48605712880E+02  0.11180728999E+03  0.50433569395E+02  0.13201901507E+03  0.46999998093E+01 0.  1.
       -5    1    3    3    0  502 -0.59122201877E+02  0.54098463907E+02 -0.65834267961E+01  0.80545080908E+02  0.46999998093E+01 0.  1.
</event>
<event>
10   0  0.1583500E-03  0.1904406E+03  0.7818609E-02  0.1168338E+00
       -4   -1    0    0    0  501  0.00000000000E+00  0.00000000000E+00  0.14609706564E+04  0.14609712084E+04  0.00000000000E+00 0.  1.
       21   -1    0    0  501  503  0.00000000000E+00  0.00000000000E+00 -0.53329882937E+02  0.53329882937E+02  0.12699999809E+01 0. -1.
       25    2    1    2    0    0 -0.59759432922E+02 -0.57825440976E+02  0.12711837806E+04  0.12800188966E+04  0.12500080078E+03 0.  0.
       -6    2    1    2    0  503  0.59759432922E+02  0.57825440976E+02  0.13645699288E+03  0.23428219473E+03  0.17132619302E+03 0.  0.
      -24    2    4    4    0    0 -0.11741275878E+01  0.23059213712E+02  0.54771429550E+00  0.81262551030E+02  0.77911464473E+02 0.  0.
       15    1    5    5    0    0 -0.19155823123E+02 -0.16721533115E+02 -0.20582140912E+02  0.32761829659E+02  0.17769999504E+01 0. -1.
      -16    1    5    5    0    0  0.17981695535E+02  0.39780746827E+02  0.21129855208E+02  0.48500721371E+02  0.00000000000E+00 0.  1.
       -5    1    4    4    0  503  0.60933560510E+02  0.34766227264E+02  0.13590927858E+03  0.15301964370E+03  0.46999998093E+01 0.  1.
        5    1    3    3  502    0 -0.36999064532E+02 -0.71079287542E+02  0.37773702058E+03  0.38617164915E+03  0.46999998093E+01 0. -1.
       -5    1    3    3    0  502 -0.22760368391E+02  0.13253846566E+02  0.89344675999E+03  0.89384724744E+03  0.46999998093E+01 0. -1.
</event>
<event>
10   0  0.1583500E-03  0.2028160E+03  0.7818609E-02  0.1155939E+00
        2   -1    0    0  503    0  0.00000000000E+00  0.00000000000E+00  0.41534973411E+03  0.41534973412E+03  0.00000000000E+00 0. -1.
       21   -1    0    0  501  503  0.00000000000E+00  0.00000000000E+00 -0.98463080523E+02  0.98463080523E+02  0.25500000920E-02 0. -1.
       25    2    1    2    0    0  0.89998239782E+02  0.61109502077E+02  0.25061560387E+03  0.30044416219E+03  0.12499783710E+03 0.  0.
        6    2    1    2  501    0 -0.89998239782E+02 -0.61109502077E+02  0.66271049715E+02  0.21336865245E+03  0.17117323217E+03 0.  0.
       24    2    4    4    0    0  0.42591935109E+01 -0.77858543807E+01 -0.12870398818E+02  0.79154890087E+02  0.77595677722E+02 0.  0.
      -15    1    5    5    0    0  0.17427080682E+02 -0.39088981580E+02  0.90016729463E-02  0.42834675578E+02  0.17769999504E+01 0.  1.
       16    1    5    5    0    0 -0.13167887171E+02  0.31303127199E+02 -0.12879400491E+02  0.36320214509E+02  0.00000000000E+00 0. -1.
        5    1    4    4  501    0 -0.94257433293E+02 -0.53323647696E+02  0.79141448533E+02  0.13421376237E+03  0.46999998093E+01 0. -1.
        5    1    3    3  502    0  0.33383536629E+02  0.28137092030E+02  0.22611391134E+03  0.23033833238E+03  0.46999998093E+01 0. -1.
       -5    1    3    3    0  502  0.56614703153E+02  0.32972410048E+02  0.24501692534E+02  0.70105829805E+02  0.46999998093E+01 0. -1.
</event>
<event>
10   0  0.1583500E-03  0.1818368E+03  0.7818609E-02  0.1178712E+00
       21   -1    0    0  501  503  0.00000000000E+00  0.00000000000E+00  0.18106411332E+03  0.18106411332E+03  0.00000000000E+00 0. -1.
        2   -1    0    0  503    0  0.00000000000E+00  0.00000000000E+00 -0.17750845340E+03  0.17750845342E+03  0.25500000920E-02 0. -1.
       25    2    1    2    0    0  0.26973161891E+02  0.46978682447E+02 -0.80505899519E+02  0.15824544858E+03  0.12500349624E+03 0.  0.
        6    2    1    2  501    0 -0.26973161891E+02 -0.46978682447E+02  0.84061559434E+02  0.20032711816E+03  0.17358012683E+03 0.  0.
       24    2    4    4    0    0  0.35543619178E+02 -0.44360032319E+02  0.94549434633E+02  0.13670879715E+03  0.80737465264E+02 0.  0.
      -13    1    5    5    0    0  0.22972373238E+02 -0.49093166589E+01 -0.90246154213E+01  0.25165177722E+02  0.10565999895E+00 0.  1.
       14    1    5    5    0    0  0.12571245940E+02 -0.39450715660E+02  0.10357405005E+03  0.11154361943E+03  0.00000000000E+00 0. -1.
        5    1    4    4  501    0 -0.62516781069E+02 -0.26186501281E+01 -0.10487875199E+02  0.63618321010E+02  0.46999998093E+01 0. -1.
        5    1    3    3  502    0  0.67779291738E+02  0.26757290662E+02 -0.85213622874E+02  0.11222048170E+03  0.46999998093E+01 0. -1.
       -5    1    3    3    0  502 -0.40806129847E+02  0.20221391785E+02  0.47077233547E+01  0.46024966879E+02  0.46999998093E+01 0. -1.
</event>
<event>
10   0  0.1583500E-03  0.1768371E+03  0.7818609E-02  0.1183666E+00
        2   -1    0    0  503    0  0.00000000000E+00  0.00000000000E+00  0.23004616166E+03  0.23004616167E+03  0.00000000000E+00 0. -1.
       21   -1    0    0  501  503  0.00000000000E+00  0.00000000000E+00 -0.10736156580E+03  0.10736156580E+03  0.25500000920E-02 0. -1.
       25    2    1    2    0    0  0.21099061053E+02  0.38763211431E+02  0.23351494555E+02  0.13458164684E+03  0.12497667954E+03 0.  0.
        6    2    1    2  501    0 -0.21099061053E+02 -0.38763211431E+02  0.99333101308E+02  0.20282608064E+03  0.17124134148E+03 0.  0.
       24    2    4    4    0    0 -0.56240468585E+02 -0.72959433830E+02  0.93518026280E+02  0.15322562453E+03  0.79034179206E+02 0.  0.
      -13    1    5    5    0    0 -0.67508068592E+02 -0.26372376409E+02  0.65608769151E+02  0.97761768171E+02  0.10565999895E+00 0.  1.
       14    1    5    5    0    0  0.11267600006E+02 -0.46587057421E+02  0.27909257130E+02  0.55463856362E+02  0.00000000000E+00 0. -1.
        5    1    4    4  501    0  0.35141407533E+02  0.34196222399E+02  0.58150750278E+01  0.49600456102E+02  0.46999998093E+01 0. -1.
        5    1    3    3  502    0  0.16781608754E+02 -0.44871806931E+02  0.14300923973E+02  0.50216609547E+02  0.46999998093E+01 0. -1.
       -5    1    3    3    0  502  0.43174522982E+01  0.83635018362E+02  0.90505705814E+01  0.84365037289E+02  0.46999998093E+01 0. -1.
</event>
<event>
10   0  0.1583500E-03  0.2001822E+03  0.7818609E-02  0.1158546E+00
       21   -1    0    0  501  503  0.00000000000E+00  0.00000000000E+00  0.17993121673E+03  0.17993121673E+03  0.00000000000E+00 0. -1.
        2   -1    0    0  503    0  0.00000000000E+00  0.00000000000E+00 -0.19692665350E+03  0.19692665351E+03  0.25500000920E-02 0.  1.
       25    2    1    2    0    0  0.27588572851E+02  0.99514130064E+02 -0.58594115004E+02  0.17239915047E+03  0.12499602127E+03 0.  0.
        6    2    1    2  501    0 -0.27588572851E+02 -0.99514130064E+02  0.41598678237E+02  0.20445871978E+03  0.17148972747E+03 0.  0.
       24    2    4    4    0    0 -0.57251691678E+02 -0.35240859799E+02  0.72184551947E+02  0.12720239603E+03  0.80312923106E+02 0.  0.
      -15    1    5    5    0    0 -0.26763516477E+02  0.64280233729E+00 -0.13042999231E+02  0.29832475037E+02  0.17769999504E+01 0.  1.
       16    1    5    5    0    0 -0.30488175200E+02 -0.35883662137E+02  0.85227551177E+02  0.97369920998E+02  0.00000000000E+00 0. -1.
        5    1    4    4  501    0  0.29663118827E+02 -0.64273270265E+02 -0.30585873710E+02  0.77256323741E+02  0.46999998093E+01 0. -1.
        5    1    3    3  502    0  0.14466033341E+02  0.64928490876E+02 -0.97748621282E+02  0.11832944692E+03  0.46999998093E+01 0.  1.
       -5    1    3    3    0  502  0.13122539510E+02  0.34585639188E+02  0.39154506278E+02  0.54069703544E+02  0.46999998093E+01 0.  1.
</event>
<event>
10   0  0.1583500E-03  0.2516025E+03  0.7818609E-02  0.1117388E+00
        2   -1    0    0  503    0  0.00000000000E+00  0.00000000000E+00  0.33477952982E+03  0.33477952983E+03  0.00000000000E+00 0. -1.
       21   -1    0    0  501  503  0.00000000000E+00  0.00000000000E+00 -0.17660325573E+03  0.17660325573E+03  0.25500000920E-02 0.  1.
       25    2    1    2    0    0 -0.62238450487E+02  0.17162408379E+03  0.13389241047E+03  0.25861109752E+03  0.12499628525E+03 0.  0.
        6    2    1    2  501    0  0.62238450487E+02 -0.17162408379E+03  0.24283863629E+02  0.25277168803E+03  0.17313396370E+03 0.  0.
       24    2    4    4    0    0  0.10484688417E+03 -0.97826577391E+02  0.33608261240E+02  0.16691957706E+03  0.78547575503E+02 0.  0.
      -11    1    5    5    0    0  0.31981087176E+02 -0.48392399038E+02 -0.22825816488E+02  0.62334838736E+02  0.51099999109E-03 0.  1.
       12    1    5    5    0    0  0.72865796990E+02 -0.49434178353E+02  0.56434077728E+02  0.10458473832E+03  0.00000000000E+00 0. -1.
        5    1    4    4  501    0 -0.42608433679E+02 -0.73797506394E+02 -0.93243976113E+01  0.85852110979E+02  0.46999998093E+01 0. -1.
        5    1    3    3  502    0 -0.20487962789E+02  0.39339307452E+02  0.10876922614E+03  0.11755922883E+03  0.46999998093E+01 0.  1.
       -5    1    3    3    0  502 -0.41750487698E+02  0.13228477633E+03  0.25123184328E+02  0.14105186869E+03  0.46999998093E+01 0.  1.
</event>
<event>
10   0  0.1583500E-03  0.1830117E+03  0.7818609E-02  0.1176426E+00
       21   -1    0    0  501  503  0.00000000000E+00  0.00000000000E+00  0.17466980386E+02  0.17466980386E+02  0.00000000000E+00 0.  1.
        2   -1    0    0  503    0  0.00000000000E+00  0.00000000000E+00 -0.19827573231E+04  0.19827573231E+04  0.25500000920E-02 0.  1.
       25    2    1    2    0    0  0.28561833568E+02  0.57926848304E+02 -0.13758567616E+04  0.13830329137E+04  0.12500765540E+03 0.  0.
        6    2    1    2  501    0 -0.28561833568E+02 -0.57926848304E+02 -0.58943358118E+03  0.61719138983E+03  0.17123658186E+03 0.  0.
       24    2    4    4    0    0 -0.70900422710E+02 -0.76871929993E+02 -0.34578112734E+03  0.36911865753E+03  0.75814456083E+02 0.  0.
      -11    1    5    5    0    0 -0.37650636927E+02 -0.84182415496E+02 -0.21426157568E+03  0.23326438295E+03  0.51099999109E-03 0.  1.
       12    1    5    5    0    0 -0.33249785783E+02  0.73104855031E+01 -0.13151955166E+03  0.13585427458E+03  0.00000000000E+00 0. -1.
        5    1    4    4  501    0  0.42338589143E+02  0.18945081689E+02 -0.24365245384E+03  0.24807273230E+03  0.46999998093E+01 0. -1.
        5    1    3    3  502    0 -0.16497944186E+02  0.85716782563E+02 -0.88534390160E+03  0.88964906737E+03  0.46999998093E+01 0.  1.
       -5    1    3    3    0  502  0.45059777754E+02 -0.27789934258E+02 -0.49051285997E+03  0.49338384632E+03  0.46999998093E+01 0.  1.
</event>
<event>
10   0  0.1583500E-03  0.1730222E+03  0.7818609E-02  0.1188626E+00
       21   -1    0    0  501  503  0.00000000000E+00  0.00000000000E+00  0.15736704985E+02  0.15736704985E+02  0.00000000000E+00 0. -1.
        2   -1    0    0  503    0  0.00000000000E+00  0.00000000000E+00 -0.15938819987E+04  0.15938819987E+04  0.25500000920E-02 0. -1.
       25    2    1    2    0    0 -0.19220902396E+02 -0.78435162303E+01 -0.93728276567E+03  0.94581039298E+03  0.12500941088E+03 0.  0.
        6    2    1    2  501    0  0.19220902396E+02  0.78435162303E+01 -0.64086252803E+03  0.66380831070E+03  0.17177231930E+03 0.  0.
       24    2    4    4    0    0  0.28895474362E+02 -0.51829761329E+02 -0.50656558140E+03  0.51645751406E+03  0.81230554403E+02 0.  0.
      -11    1    5    5    0    0 -0.19594901864E+02 -0.20384369773E+01 -0.38376200772E+02  0.43137549656E+02  0.51099999109E-03 0.  1.
       12    1    5    5    0    0  0.48490376226E+02 -0.49791324352E+02 -0.46818938063E+03  0.47331996440E+03  0.00000000000E+00 0. -1.
        5    1    4    4  501    0 -0.96745719655E+01  0.59673277560E+02 -0.13429694663E+03  0.14735079664E+03  0.46999998093E+01 0. -1.
        5    1    3    3  502    0  0.39983410518E+02 -0.35107077606E+02 -0.26308819357E+03  0.26845608134E+03  0.46999998093E+01 0. -1.
       -5    1    3    3    0  502 -0.59204312915E+02  0.27263561376E+02 -0.67419457211E+03  0.67735431165E+03  0.46999998093E+01 0. -1.
</event>
<event>
10   0  0.1583500E-03  0.2313630E+03  0.7818609E-02  0.1132293E+00
       21   -1    0    0  501  503  0.00000000000E+00  0.00000000000E+00  0.35405851968E+03  0.35405851968E+03  0.00000000000E+00 0.  1.
        2   -1    0    0  503    0  0.00000000000E+00  0.00000000000E+00 -0.13615549228E+03  0.13615549230E+03  0.25500000920E-02 0. -1.
       25    2    1    2    0    0 -0.12498619888E+03 -0.86137524690E+02  0.15519138137E+03  0.25050250610E+03  0.12500367051E+03 0.  0.
        6    2    1    2  501    0  0.12498619888E+03  0.86137524690E+02  0.62711646030E+02  0.23971150588E+03  0.17460708013E+03 0.  0.
       24    2    4    4    0    0  0.13960016311E+03  0.17588539855E+02  0.46046063284E+02  0.16751480984E+03  0.78379903675E+02 0.  0.
      -11    1    5    5    0    0  0.27176441206E+02 -0.22198301934E+02  0.31898981821E+02  0.47422237472E+02  0.51099999109E-03 0.  1.
       12    1    5    5    0    0  0.11242372190E+03  0.39786841789E+02  0.14147081464E+02  0.12009257237E+03  0.00000000000E+00 0. -1.
        5    1    4    4  501    0 -0.14613964221E+02  0.68548984835E+02  0.16665582746E+02  0.72196696037E+02  0.46999998093E+01 0. -1.
        5    1    3    3  502    0 -0.11158591615E+03 -0.85038661846E+02  0.17610050247E+03  0.22520316974E+03  0.46999998093E+01 0. -1.
       -5    1    3    3    0  502 -0.13400282733E+02 -0.10988628435E+01 -0.20909121102E+02  0.25299336362E+02  0.46999998093E+01 0. -1.
</event>
<event>
10   0  0.1583500E-03  0.1729372E+03  0.7818609E-02  0.1188697E+00
       21   -1    0    0  501  503  0.00000000000E+00  0.00000000000E+00  0.60632760372E+03  0.60632760372E+03  0.00000000000E+00 0. -1.
        2   -1    0    0  503    0  0.00000000000E+00  0.00000000000E+00 -0.44411749760E+02  0.44411749833E+02  0.25500000920E-02 0. -1.
       25    2    1    2    0    0 -0.59748078874E+01  0.19881742146E+02  0.11341978781E+03  0.17005650359E+03  0.12499673655E+03 0.  0.
        6    2    1    2  501    0  0.59748078874E+01 -0.19881742146E+02  0.44849606616E+03  0.48068284997E+03  0.17168662992E+03 0.  0.
       24    2    4    4    0    0 -0.47698543818E+02 -0.11958862011E+02  0.15132562840E+03  0.17856373474E+03  0.81039472416E+02 0.  0.
      -13    1    5    5    0    0 -0.38286701612E+02 -0.38830342925E+02  0.13533556208E+03  0.14590885025E+03  0.10565999895E+00 0.  1.
       14    1    5    5    0    0 -0.94118422064E+01  0.26871480914E+02  0.15990066316E+02  0.32654884489E+02  0.00000000000E+00 0. -1.
        5    1    4    4  501    0  0.53673351706E+02 -0.79228801351E+01  0.29717043776E+03  0.30211911523E+03  0.46999998093E+01 0. -1.
        5    1    3    3  502    0 -0.57684681451E+02 -0.16646830551E+02  0.73676204622E+02  0.95157304329E+02  0.46999998093E+01 0. -1.
       -5    1    3    3    0  502  0.51709873564E+02  0.36528572697E+02  0.39743583185E+02  0.74899199261E+02  0.46999998093E+01 0. -1.
</event>
<event>
10   0  0.1583500E-03  0.1733199E+03  0.7818609E-02  0.1187774E+00
        2   -1    0    0  503    0  0.00000000000E+00  0.00000000000E+00  0.11027767501E+04  0.11027767501E+04  0.00000000000E+00 0. -1.
       21   -1    0    0  501  503  0.00000000000E+00  0.00000000000E+00 -0.29572673441E+02  0.29572673441E+02  0.25500000920E-02 0. -1.
       25    2    1    2    0    0  0.22997819875E+02 -0.18753088607E+02  0.78955491007E+03  0.79993906493E+03  0.12499989415E+03 0.  0.
        6    2    1    2  501    0 -0.22997819875E+02  0.18753088607E+02  0.28364916662E+03  0.33241035864E+03  0.17076070613E+03 0.  0.
       24    2    4    4    0    0 -0.96220947587E+01  0.10222466009E+02  0.29941520067E+03  0.30955561358E+03  0.77318380637E+02 0.  0.
      -13    1    5    5    0    0 -0.10893691330E+02  0.43176287793E+02  0.14617957493E+03  0.15281146432E+03  0.10565999895E+00 0.  1.
       14    1    5    5    0    0  0.12715965714E+01 -0.32953821784E+02  0.15323562574E+03  0.15674414925E+03  0.00000000000E+00 0. -1.
        5    1    4    4  501    0 -0.13375725116E+02  0.85306225984E+01 -0.15766034049E+02  0.22854745068E+02  0.46999998093E+01 0. -1.
        5    1    3    3  502    0  0.12878605055E+02 -0.21614023871E+02  0.78788455055E+03  0.78830018361E+03  0.46999998093E+01 0. -1.
       -5    1    3    3    0  502  0.10119214820E+02  0.28609352643E+01  0.16703595195E+01  0.11638881316E+02  0.46999998093E+01 0. -1.
</event>
<event>
10   0  0.1583500E-03  0.2121230E+03  0.7818609E-02  0.1147658E+00
        2   -1    0    0  503    0  0.00000000000E+00  0.00000000000E+00  0.35704786937E+04  0.35704786938E+04  0.00000000000E+00 0.  1.
       21   -1    0    0  501  503  0.00000000000E+00  0.00000000000E+00 -0.17210249920E+02  0.17210249920E+02  0.25500000920E-02 0.  1.
       25    2    1    2    0    0 -0.66361853494E+02  0.10483460102E+03  0.27882356696E+04  0.27937926454E+04  0.12500002861E+03 0.  0.
        6    2    1    2  501    0  0.66361853494E+02 -0.10483460102E+03  0.76503277426E+03  0.79389629829E+03  0.17205231058E+03 0.  0.
       24    2    4    4    0    0 -0.12680924502E+02 -0.39747323519E+02  0.21444684406E+03  0.23385070106E+03  0.83414902055E+02 0.  0.
      -13    1    5    5    0    0  0.78040511436E+00  0.26060179810E+02  0.62396345954E+02  0.67624382853E+02  0.10565999895E+00 0.  1.
       14    1    5    5    0    0 -0.13461329617E+02 -0.65807503329E+02  0.15205049811E+03  0.16622631820E+03  0.00000000000E+00 0. -1.
        5    1    4    4  501    0  0.79042777996E+02 -0.65087277501E+02  0.55058593020E+03  0.56004559723E+03  0.46999998093E+01 0. -1.
        5    1    3    3  502    0  0.23058155490E+02 -0.17558627378E+01  0.95009404047E+03  0.95038704607E+03  0.46999998093E+01 0.  1.
       -5    1    3    3    0  502 -0.89420008984E+02  0.10659046376E+03  0.18381416291E+04  0.18434055993E+04  0.46999998093E+01 0.  1.
</event>
<event>
10   0  0.1583500E-03  0.1898422E+03  0.7818609E-02  0.1169593E+00
       21   -1    0    0  501  503  0.00000000000E+00  0.00000000000E+00  0.67671564108E+03  0.67671564108E+03  0.00000000000E+00 0.  1.
       -2   -1    0    0    0  501  0.00000000000E+00  0.00000000000E+00 -0.43291975761E+02  0.43291975836E+02  0.25500000920E-02 0.  1.
       25    2    1    2    0    0 -0.17281195730E+02  0.75909463549E+02  0.21577924390E+03  0.26124088152E+03  0.12500091880E+03 0.  0.
       -6    2    1    2    0  503  0.17281195730E+02 -0.75909463549E+02  0.41764442142E+03  0.45876673539E+03  0.17314493460E+03 0.  0.
      -24    2    4    4    0    0  0.58925372861E+01 -0.23558391315E+02  0.61323649591E+02  0.98410080479E+02  0.73035841501E+02 0.  0.
       13    1    5    5    0    0 -0.22435556664E+02 -0.31036156319E+02  0.57180458763E+02  0.68820151339E+02  0.10565999895E+00 0. -1.
      -14    1    5    5    0    0  0.28328093950E+02  0.74777650042E+01  0.41431908279E+01  0.29589929140E+02  0.00000000000E+00 0.  1.
       -5    1    4    4    0  503  0.11388658444E+02 -0.52351072234E+02  0.35632077183E+03  0.36035665491E+03  0.46999998093E+01 0.  1.
        5    1    3    3  502    0  0.38738293238E+02  0.81418307932E+02  0.14293157583E+03  0.16905952087E+03  0.46999998093E+01 0. -1.
       -5    1    3    3    0  502 -0.56019488968E+02 -0.55088443827E+01  0.72847668071E+02  0.92181360655E+02  0.46999998093E+01 0. -1.
</event>
<event>
10   0  0.1583500E-03  0.2228085E+03  0.7818609E-02  0.1138588E+00
        2   -1    0    0  503    0  0.00000000000E+00  0.00000000000E+00  0.17148918540E+03  0.17148918542E+03  0.00000000000E+00 0. -1.
       21   -1    0    0  501  503  0.00000000000E+00  0.00000000000E+00 -0.42743915782E+03  0.42743915782E+03  0.25500000920E-02 0. -1.
       25    2    1    2    0    0  0.10002502700E+03 -0.10030184754E+03  0.72235664604E+02  0.20225536108E+03  0.12499509270E+03 0.  0.
        6    2    1    2  501    0 -0.10002502700E+03  0.10030184754E+03 -0.32818563702E+03  0.39667298217E+03  0.17198306831E+03 0.  0.
       24    2    4    4    0    0 -0.22687664612E+02  0.33831780603E+02 -0.55705094464E+02  0.10569691186E+03  0.80059103937E+02 0.  0.
      -15    1    5    5    0    0  0.29264863364E+02  0.16973074986E+02 -0.30330696870E+02  0.45471160130E+02  0.17769999504E+01 0.  1.
       16    1    5    5    0    0 -0.51952527976E+02  0.16858705618E+02 -0.25374397595E+02  0.60225751730E+02  0.00000000000E+00 0. -1.
        5    1    4    4  501    0 -0.77337362387E+02  0.66470066934E+02 -0.27248054256E+03  0.29097607031E+03  0.46999998093E+01 0. -1.
        5    1    3    3  502    0  0.10795654951E+03 -0.59345386176E+02  0.93940764544E+02  0.15499499567E+03  0.46999998093E+01 0.  1.
       -5    1    3    3    0  502 -0.79315225091E+01 -0.40956461362E+02 -0.21705099941E+02  0.47260365405E+02  0.46999998093E+01 0.  1.
</event>
<event>
10   0  0.1583500E-03  0.2163994E+03  0.7818609E-02  0.1144624E+00
       21   -1    0    0  501  503  0.00000000000E+00  0.00000000000E+00  0.24981292833E+02  0.24981292833E+02  0.00000000000E+00 0.  1.
        2   -1    0    0  503    0  0.00000000000E+00  0.00000000000E+00 -0.15690083855E+04  0.15690083855E+04  0.25500000920E-02 0.  1.
       25    2    1    2    0    0 -0.12286815658E+03  0.32923170519E+02 -0.76026157969E+03  0.78089862091E+03  0.12499787006E+03 0.  0.
        6    2    1    2  501    0  0.12286815658E+03 -0.32923170519E+02 -0.78376551300E+03  0.81309105746E+03  0.17506618544E+03 0.  0.
       24    2    4    4    0    0  0.13814996789E+03  0.12849433733E+02 -0.49841267244E+03  0.52364849205E+03  0.80882813972E+02 0.  0.
      -15    1    5    5    0    0  0.74318166249E+02 -0.77524995675E+01 -0.13698021132E+03  0.15604495219E+03  0.17769999504E+01 0.  1.
       16    1    5    5    0    0  0.63831801644E+02  0.20601933300E+02 -0.36143246113E+03  0.36760353985E+03  0.00000000000E+00 0. -1.
        5    1    4    4  501    0 -0.15281811312E+02 -0.45772604252E+02 -0.28535284056E+03  0.28944256541E+03  0.46999998093E+01 0. -1.
        5    1    3    3  502    0 -0.10923456703E+03  0.17101708674E+02 -0.74817414467E+03  0.75631428641E+03  0.46999998093E+01 0.  1.
       -5    1    3    3    0  502 -0.13633589555E+02  0.15821461845E+02 -0.12087435018E+02  0.24584334495E+02  0.46999998093E+01 0.  1.
</event>
<event>
10   0  0.1583500E-03  0.2638781E+03  0.7818609E-02  0.1108691E+00
       21   -1    0    0  501  503  0.00000000000E+00  0.00000000000E+00  0.64492318793E+02  0.64492318793E+02  0.00000000000E+00 0. -1.
       -2   -1    0    0    0  501  0.00000000000E+00  0.00000000000E+00 -0.12104242448E+04  0.12104242448E+04  0.25500000920E-02 0.  1.
       25    2    1    2    0    0  0.12535246196E+03 -0.16064523928E+03 -0.82760607692E+03  0.86143983310E+03  0.12500653934E+03 0.  0.
       -6    2    1    2    0  503 -0.12535246196E+03  0.16064523928E+03 -0.31832584910E+03  0.41347673051E+03  0.16766492729E+03 0.  0.
      -24    2    4    4    0    0 -0.15486407129E+03  0.12501555922E+03 -0.28262104103E+03  0.35484796193E+03  0.80191350114E+02 0.  0.
       11    1    5    5    0    0 -0.81425908657E+02  0.88115153260E+02 -0.10622236157E+03  0.16024246919E+03  0.51099999109E-03 0. -1.
      -12    1    5    5    0    0 -0.73438162634E+02  0.36900405963E+02 -0.17639867946E+03  0.19460549275E+03  0.00000000000E+00 0.  1.
       -5    1    4    4    0  503  0.29511609334E+02  0.35629680060E+02 -0.35704808073E+02  0.58628768573E+02  0.46999998093E+01 0.  1.
        5    1    3    3  502    0  0.17583642120E+02 -0.38478010567E+02 -0.44598221429E+02  0.61650897157E+02  0.46999998093E+01 0.  1.
       -5    1    3    3    0  502  0.10776881984E+03 -0.12216722872E+03 -0.78300785549E+03  0.79978893595E+03  0.46999998093E+01 0.  1.
</event>
<event>
10   0  0.1583500E-03  0.2223120E+03  0.7818609E-02  0.1138936E+00
       21   -1    0    0  501  503  0.00000000000E+00  0.00000000000E+00  0.36254007333E+02  0.36254007333E+02  0.00000000000E+00 0.  1.
        2   -1    0    0  503    0  0.00000000000E+00  0.00000000000E+00 -0.11757781534E+04  0.11757781534E+04  0.25500000920E-02 0.  1.
       25    2    1    2    0    0 -0.60938188756E+02 -0.12739559165E+03 -0.46382961807E+03  0.50070542792E+03  0.12499964529E+03 0.  0.
        6    2    1    2  501    0  0.60938188756E+02  0.12739559165E+03 -0.67569452801E+03  0.71132673284E+03  0.17169602804E+03 0.  0.
       24    2    4    4    0    0  0.10762015755E+03  0.92075862679E+02 -0.52033095123E+03  0.54523452817E+03  0.80475642860E+02 0.  0.
      -11    1    5    5    0    0  0.24307656436E+02  0.67368404106E+02 -0.17389407509E+03  0.18806518387E+03  0.51099999109E-03 0.  1.
       12    1    5    5    0    0  0.83312501114E+02  0.24707458573E+02 -0.34643687615E+03  0.35716934430E+03  0.00000000000E+00 0. -1.
        5    1    4    4  501    0 -0.46681968794E+02  0.35319728971E+02 -0.15536357678E+03  0.16609220467E+03  0.46999998093E+01 0. -1.
        5    1    3    3  502    0  0.44687025697E+00 -0.42721599920E+02 -0.25347801301E+02  0.49899256725E+02  0.46999998093E+01 0. -1.
       -5    1    3    3    0  502 -0.61385059013E+02 -0.84673991731E+02 -0.43848181677E+03  0.45080617119E+03  0.46999998093E+01 0. -1.
</event>
<event>
10   0  0.1583500E-03  0.1793772E+03  0.7818609E-02  0.1181132E+00
        2   -1    0    0  503    0  0.00000000000E+00  0.00000000000E+00  0.11844809641E+03  0.11844809643E+03  0.00000000000E+00 0. -1.
       21   -1    0    0  501  503  0.00000000000E+00  0.00000000000E+00 -0.20813888523E+03  0.20813888523E+03  0.25500000920E-02 0. -1.
       25    2    1    2    0    0  0.38363501791E+02  0.31087100945E+02 -0.31976337668E+02  0.13815361137E+03  0.12500307216E+03 0.  0.
        6    2    1    2  501    0 -0.38363501791E+02 -0.31087100945E+02 -0.57714451159E+02  0.18843337029E+03  0.17244712538E+03 0.  0.
       24    2    4    4    0    0 -0.16087449807E+02 -0.85501707910E+02 -0.51681544601E+02  0.12914038671E+03  0.80230351672E+02 0.  0.
      -13    1    5    5    0    0  0.38776054114E+01 -0.73693218259E+02 -0.14473865974E+01  0.73809432548E+02  0.10565999895E+00 0.  1.
       14    1    5    5    0    0 -0.19965055218E+02 -0.11808489651E+02 -0.50234158003E+02  0.55330954158E+02  0.00000000000E+00 0. -1.
        5    1    4    4  501    0 -0.22276051984E+02  0.54414606965E+02 -0.60329065582E+01  0.59292983589E+02  0.46999998093E+01 0. -1.
        5    1    3    3  502    0 -0.40892096377E+02 -0.12689095145E+02 -0.39331904521E+01  0.43252013445E+02  0.46999998093E+01 0. -1.
       -5    1    3    3    0  502  0.79255598167E+02  0.43776196091E+02 -0.28043147216E+02  0.94901597927E+02  0.46999998093E+01 0. -1.
</event>
<event>
10   0  0.1583500E-03  0.1745895E+03  0.7818609E-02  0.1186483E+00
        2   -1    0    0  503    0  0.00000000000E+00  0.00000000000E+00  0.12212944779E+04  0.12212944779E+04  0.00000000000E+00 0.  1.
       21   -1    0    0  501  503  0.00000000000E+00  0.00000000000E+00 -0.44630404839E+02  0.44630404839E+02  0.25500000920E-02 0.  1.
       25    2    1    2    0    0  0.29979636121E+02 -0.14385899262E+02  0.10294772975E+04  0.10375711358E+04  0.12499849261E+03 0.  0.
        6    2    1    2  501    0 -0.29979636121E+02  0.14385899262E+02  0.14718677565E+03  0.22835374700E+03  0.17139356512E+03 0.  0.
       24    2    4    4    0    0 -0.72251165021E+02  0.26138261448E+02  0.46440419820E+02  0.11836775524E+03  0.77141255692E+02 0.  0.
      -15    1    5    5    0    0  0.13397173228E+02 -0.88918048746E+01  0.46408531448E+01  0.16829845250E+02  0.17769999504E+01 0.  1.
       16    1    5    5    0    0 -0.85648338249E+02  0.35030066323E+02  0.41799566675E+02  0.10153790999E+03  0.00000000000E+00 0. -1.
        5    1    4    4  501    0  0.42271528900E+02 -0.11752362186E+02  0.10074635583E+03  0.10998599176E+03  0.46999998093E+01 0. -1.
        5    1    3    3  502    0 -0.33998213615E+02 -0.11956964661E+02  0.74731063968E+03  0.74819391183E+03  0.46999998093E+01 0. -1.
       -5    1    3    3    0  502  0.63977849737E+02 -0.24289346003E+01  0.28216665777E+03  0.28937722394E+03  0.46999998093E+01 0. -1.
</event>
<event>
10   0  0.1583500E-03  0.2405994E+03  0.7818609E-02  0.1125004E+00
       21   -1    0    0  501  503  0.00000000000E+00  0.00000000000E+00  0.15405859283E+03  0.15405859283E+03  0.00000000000E+00 0. -1.
        2   -1    0    0  503    0  0.00000000000E+00  0.00000000000E+00 -0.51473012222E+03  0.51473012223E+03  0.25500000920E-02 0.  1.
       25    2    1    2    0    0  0.14730619614E+03  0.80240064459E+02 -0.37321874724E+03  0.42786241902E+03  0.12504572345E+03 0.  0.
        6    2    1    2  501    0 -0.14730619614E+03 -0.80240064459E+02  0.12547217848E+02  0.24092629603E+03  0.17248322840E+03 0.  0.
       24    2    4    4    0    0 -0.70577337643E+02 -0.90967628867E+02 -0.45510962454E+02  0.14399724640E+03  0.73536991896E+02 0.  0.
      -11    1    5    5    0    0  0.13222752781E+02 -0.85544713372E+01 -0.16758020265E+02  0.22996769652E+02  0.51099999109E-03 0.  1.
       12    1    5    5    0    0 -0.83800090424E+02 -0.82413157530E+02 -0.28752942189E+02  0.12100047675E+03  0.00000000000E+00 0. -1.
        5    1    4    4  501    0 -0.76728858499E+02  0.10727564408E+02  0.58058180302E+02  0.96929049633E+02  0.46999998093E+01 0. -1.
        5    1    3    3  502    0  0.15660603559E+03  0.38112352870E+02 -0.25263724295E+03  0.29970930641E+03  0.46999998093E+01 0.  1.
       -5    1    3    3    0  502 -0.92998394461E+01  0.42127711589E+02 -0.12058150429E+03  0.12815311262E+03  0.46999998093E+01 0.  1.
</event>
<event>
10   0  0.1583500E-03  0.1871896E+03  0.7818609E-02  0.1172023E+00
       21   -1    0    0  501  503  0.00000000000E+00  0.00000000000E+00  0.35079882230E+02  0.35079882230E+02  0.00000000000E+00 0. -1.
        2   -1    0    0  503    0  0.00000000000E+00  0.00000000000E+00 -0.10261417359E+04  0.10261417359E+04  0.25500000920E-02 0. -1.
       25    2    1    2    0    0  0.43161866249E+01  0.73986761160E+02 -0.70171191110E+03  0.71660106674E+03  0.12499924955E+03 0.  0.
        6    2    1    2  501    0 -0.43161866249E+01 -0.73986761160E+02 -0.28934994256E+03  0.34462055138E+03  0.17189317868E+03 0.  0.
       24    2    4    4    0    0  0.61206172792E+02 -0.61957893081E+02 -0.21208444340E+03  0.24249356861E+03  0.78983185433E+02 0.  0.
      -15    1    5    5    0    0  0.83120447517E+01  0.17361990120E+02 -0.59610918730E+02  0.62666962185E+02  0.17769999504E+01 0.  1.
       16    1    5    5    0    0  0.52894128040E+02 -0.79319883201E+02 -0.15247352467E+03  0.17982660642E+03  0.00000000000E+00 0. -1.
        5    1    4    4  501    0 -0.65522359417E+02 -0.12028868079E+02 -0.77265499163E+02  0.10212698277E+03  0.46999998093E+01 0. -1.
        5    1    3    3  502    0  0.63131564112E+02  0.52947238947E+02 -0.41480352098E+03  0.42293386659E+03  0.46999998093E+01 0.  1.
       -5    1    3    3    0  502 -0.58815377487E+02  0.21039522213E+02 -0.28690839012E+03  0.29366720015E+03  0.46999998093E+01 0.  1.
</event>
<event>
10   0  0.1583500E-03  0.3592518E+03  0.7818609E-02  0.1060965E+00
        2   -1    0    0  503    0  0.00000000000E+00  0.00000000000E+00  0.11563494281E+04  0.11563494281E+04  0.00000000000E+00 0.  1.
       21   -1    0    0  501  503  0.00000000000E+00  0.00000000000E+00 -0.34001135903E+03  0.34001135903E+03  0.25500000920E-02 0. -1.
       25    2    1    2    0    0  0.19375405200E+02  0.31439379884E+03  0.10259201711E+04  0.10804443335E+04  0.12501557185E+03 0.  0.
        6    2    1    2  501    0 -0.19375405200E+02 -0.31439379884E+03 -0.20958210204E+03  0.41591645365E+03  0.17275118478E+03 0.  0.
       24    2    4    4    0    0 -0.36350104748E+02 -0.12311078549E+03 -0.15258499709E+03  0.21554656670E+03  0.81856859592E+02 0.  0.
      -11    1    5    5    0    0  0.24074752341E+02 -0.26425948405E+02 -0.54335158875E+02  0.65040248613E+02  0.51099999109E-03 0.  1.
       12    1    5    5    0    0 -0.60424857090E+02 -0.96684837083E+02 -0.98249838215E+02  0.15050631809E+03  0.00000000000E+00 0. -1.
        5    1    4    4  501    0  0.16974699548E+02 -0.19128301335E+03 -0.56997104951E+02  0.20036988694E+03  0.46999998093E+01 0. -1.
        5    1    3    3  502    0 -0.20046785001E+02  0.25123564201E+03  0.89435685864E+03  0.92920261623E+03  0.46999998093E+01 0. -1.
       -5    1    3    3    0  502  0.39422190201E+02  0.63158156831E+02  0.13156331245E+03  0.15124171725E+03  0.46999998093E+01 0. -1.
</event>
<event>
10   0  0.1583500E-03  0.2389343E+03  0.7818609E-02  0.1126424E+00
        2   -1    0    0  503    0  0.00000000000E+00  0.00000000000E+00  0.11926783206E+03  0.11926783209E+03  0.00000000000E+00 0.  1.
       21   -1    0    0  501  503  0.00000000000E+00  0.00000000000E+00 -0.10835988955E+04  0.10835988955E+04  0.25500000920E-02 0.  1.
       25    2    1    2    0    0  0.16368249366E+03 -0.10966874335E+02  0.31950540575E+01  0.20627434925E+03  0.12500667072E+03 0.  0.
        6    2    1    2  501    0 -0.16368249366E+03  0.10966874335E+02 -0.96752611748E+03  0.99659237833E+03  0.17371629021E+03 0.  0.
       24    2    4    4    0    0 -0.13577137273E+03  0.64610852872E+02 -0.81092876683E+03  0.82865927458E+03  0.80388435279E+02 0.  0.
      -11    1    5    5    0    0 -0.84676080281E+01  0.38761300037E+02 -0.15550613755E+03  0.16048768670E+03  0.51099999109E-03 0.  1.
       12    1    5    5    0    0 -0.12730376470E+03  0.25849552836E+02 -0.65542262928E+03  0.66817158789E+03  0.00000000000E+00 0. -1.
        5    1    4    4  501    0 -0.27911120928E+02 -0.53643978537E+02 -0.15659735065E+03  0.16793310375E+03  0.46999998093E+01 0. -1.
        5    1    3    3  502    0  0.15423283981E+03 -0.51178095457E+02  0.14431486116E+02  0.16320944862E+03  0.46999998093E+01 0. -1.
       -5    1    3    3    0  502  0.94496538447E+01  0.40211221122E+02 -0.11236432058E+02  0.43064900621E+02  0.46999998093E+01 0. -1.
</event>
<event>
10   0  0.1583500E-03  0.1819074E+03  0.7818609E-02  0.1177890E+00
        2   -1    0    0  503    0  0.00000000000E+00  0.00000000000E+00  0.25482567766E+04  0.25482567766E+04  0.00000000000E+00 0. -1.
       21   -1    0    0  501  503  0.00000000000E+00  0.00000000000E+00 -0.13672638776E+02  0.13672638776E+02  0.25500000920E-02 0. -1.
       25    2    1    2    0    0 -0.94016298204E+01 -0.59191106286E+02  0.17933840172E+04  0.17987335547E+04  0.12499676047E+03 0.  0.
        6    2    1    2  501    0  0.94016298204E+01  0.59191106286E+02  0.74120012061E+03  0.76319586062E+03  0.17175076465E+03 0.  0.
       24    2    4    4    0    0 -0.30312662402E+02  0.26434640216E+02  0.66593677022E+03  0.67188938228E+03  0.79661235121E+02 0.  0.
      -13    1    5    5    0    0 -0.17410563834E+02 -0.23277358531E+02  0.11706695696E+03  0.12062191645E+03  0.10565999895E+00 0.  1.
       14    1    5    5    0    0 -0.12902098568E+02  0.49711998748E+02  0.54886981326E+03  0.55126746582E+03  0.00000000000E+00 0. -1.
        5    1    4    4  501    0  0.39714292222E+02  0.32756466069E+02  0.75263350392E+02  0.91306478338E+02  0.46999998093E+01 0. -1.
        5    1    3    3  502    0  0.38328772781E+02  0.62501014503E+01  0.23456753916E+03  0.23780702053E+03  0.46999998093E+01 0. -1.
       -5    1    3    3    0  502 -0.47730402601E+02 -0.65441207736E+02  0.15588164780E+04  0.15609265342E+04  0.46999998093E+01 0. -1.
</event>
<event>
10   0  0.1583500E-03  0.1882564E+03  0.7818609E-02  0.1169449E+00
       21   -1    0    0  501  503  0.00000000000E+00  0.00000000000E+00  0.92159074792E+03  0.92159074792E+03  0.00000000000E+00 0. -1.
        2   -1    0    0  503    0  0.00000000000E+00  0.00000000000E+00 -0.12162245899E+03  0.12162245902E+03  0.25500000920E-02 0.  1.
       25    2    1    2    0    0 -0.20727055818E+02 -0.83072218209E+02 -0.59940101968E+02  0.16293886906E+03  0.12500261976E+03 0.  0.
        6    2    1    2  501    0  0.20727055818E+02  0.83072218209E+02  0.85990839090E+03  0.88027433787E+03  0.16765996810E+03 0.  0.
       24    2    4    4    0    0 -0.15442787504E+02  0.11367135998E+03  0.65365947871E+03  0.66860178694E+03  0.81227936233E+02 0.  0.
      -15    1    5    5    0    0  0.33360158803E+02  0.42329525241E+02  0.23398639431E+03  0.24011971879E+03  0.17769999504E+01 0.  1.
       16    1    5    5    0    0 -0.48802946307E+02  0.71341834739E+02  0.41967308440E+03  0.42848206815E+03  0.00000000000E+00 0. -1.
        5    1    4    4  501    0  0.36169843322E+02 -0.30599141771E+02  0.20624891218E+03  0.21167255093E+03  0.46999998093E+01 0. -1.
        5    1    3    3  502    0 -0.89342344029E+01 -0.46859719550E+01 -0.80215291311E+02  0.80983713399E+02  0.46999998093E+01 0.  1.
       -5    1    3    3    0  502 -0.11792821415E+02 -0.78386246254E+02  0.20275189343E+02  0.81955155663E+02  0.46999998093E+01 0.  1.
</event>
<event>
10   0  0.1583500E-03  0.2889056E+03  0.7818609E-02  0.1094428E+00
        2   -1    0    0  503    0  0.00000000000E+00  0.00000000000E+00  0.59952721884E+03  0.59952721884E+03  0.00000000000E+00 0.  1.
       21   -1    0    0  501  503  0.00000000000E+00  0.00000000000E+00 -0.13610099175E+03  0.13610099175E+03  0.25500000920E-02 0. -1.
       25    2    1    2    0    0  0.22241975303E+03  0.65659772137E+02  0.31556969840E+03  0.41108546228E+03  0.12500108211E+03 0.  0.
        6    2    1    2  501    0 -0.22241975303E+03 -0.65659772137E+02  0.14785652868E+03  0.32454274832E+03  0.17229245544E+03 0.  0.
       24    2    4    4    0    0 -0.38148001800E+02 -0.36344732388E+02  0.80793376030E+02  0.12621220025E+03  0.81398650289E+02 0.  0.
      -13    1    5    5    0    0 -0.23867932060E+02 -0.61060386706E+02  0.41302240464E+02  0.77485064605E+02  0.10565999895E+00 0.  1.
       14    1    5    5    0    0 -0.14280069740E+02  0.24715654318E+02  0.39491135567E+02  0.48727135649E+02  0.00000000000E+00 0. -1.
        5    1    4    4  501    0 -0.18427175123E+03 -0.29315039750E+02  0.67063152646E+02  0.19833054807E+03  0.46999998093E+01 0. -1.
        5    1    3    3  502    0  0.22855758091E+03  0.83982578574E+02  0.29310121040E+03  0.38108011078E+03  0.46999998093E+01 0. -1.
       -5    1    3    3    0  502 -0.61378278852E+01 -0.18322806437E+02  0.22468488008E+02  0.30005351497E+02  0.46999998093E+01 0. -1.
</event>
<event>
10   0  0.1583500E-03  0.2128003E+03  0.7818609E-02  0.1146833E+00
        2   -1    0    0  503    0  0.00000000000E+00  0.00000000000E+00  0.70236341177E+03  0.70236341177E+03  0.00000000000E+00 0.  1.
       21   -1    0    0  501  503  0.00000000000E+00  0.00000000000E+00 -0.65890218511E+02  0.65890218511E+02  0.25500000920E-02 0.  1.
       25    2    1    2    0    0  0.96741338500E+02 -0.81654408560E+02  0.45512664805E+03  0.48866368522E+03  0.12500240987E+03 0.  0.
        6    2    1    2  501    0 -0.96741338500E+02  0.81654408560E+02  0.18134654520E+03  0.27958994506E+03  0.17104864487E+03 0.  0.
       24    2    4    4    0    0 -0.10425616930E+03  0.74956368938E+02  0.66730819397E+02  0.16443704229E+03  0.78094382245E+02 0.  0.
      -13    1    5    5    0    0 -0.48951938663E+02  0.75953979453E+02  0.60564219628E+02  0.10878113419E+03  0.10565999895E+00 0.  1.
       14    1    5    5    0    0 -0.55304230638E+02 -0.99761051490E+00  0.61665997689E+01  0.55655908095E+02  0.00000000000E+00 0. -1.
        5    1    4    4  501    0  0.75148308005E+01  0.66980396218E+01  0.11461572581E+03  0.11515290277E+03  0.46999998093E+01 0. -1.
        5    1    3    3  502    0  0.21575778812E+02  0.28755362325E+02  0.16923293762E+03  0.17307299693E+03  0.46999998093E+01 0. -1.
       -5    1    3    3    0  502  0.75165559688E+02 -0.11040977089E+03  0.28589371044E+03  0.31559068829E+03  0.46999998093E+01 0. -1.
</event>
<event>
10   0  0.1583500E-03  0.1822611E+03  0.7818609E-02  0.1179331E+00
       21   -1    0    0  501  503  0.00000000000E+00  0.00000000000E+00  0.12970241314E+03  0.12970241314E+03  0.00000000000E+00 0.  1.
       -4   -1    0    0    0  501  0.00000000000E+00  0.00000000000E+00 -0.34415589918E+03  0.34415824244E+03  0.12699999809E+01 0.  1.
       25    2    1    2    0    0  0.44135018938E+02  0.15069048768E+02 -0.25441184362E+03  0.28727076824E+03  0.12499652789E+03 0.  0.
       -6    2    1    2    0  503 -0.44135018938E+02 -0.15069048768E+02  0.39958357581E+02  0.18658988734E+03  0.17619347205E+03 0.  0.
      -24    2    4    4    0    0  0.69385703447E+01 -0.69992771651E+02  0.32927317337E+02  0.11111371639E+03  0.79466457706E+02 0.  0.
       11    1    5    5    0    0  0.39876290467E+02 -0.42497016891E+02  0.35315006017E+02  0.68141504505E+02  0.51099999109E-03 0. -1.
      -12    1    5    5    0    0 -0.32937720122E+02 -0.27495754760E+02 -0.23876886801E+01  0.42972211880E+02  0.00000000000E+00 0.  1.
       -5    1    4    4    0  503 -0.51073589282E+02  0.54923722883E+02  0.70310402443E+01  0.75476170959E+02  0.46999998093E+01 0.  1.
        5    1    3    3  502    0  0.28888582157E+02  0.70165783174E+02 -0.14210727865E+03  0.16116561653E+03  0.46999998093E+01 0.  1.
       -5    1    3    3    0  502  0.15246436781E+02 -0.55096734407E+02 -0.11230456497E+03  0.12610515172E+03  0.46999998093E+01 0.  1.
</event>
<event>
10   0  0.1583500E-03  0.1758291E+03  0.7818609E-02  0.1184934E+00
        4   -1    0    0  503    0  0.00000000000E+00  0.00000000000E+00  0.30030072804E+03  0.30030341350E+03  0.00000000000E+00 0.  1.
       21   -1    0    0  501  503  0.00000000000E+00  0.00000000000E+00 -0.26648214402E+03  0.26648214402E+03  0.12699999809E+01 0.  1.
       25    2    1    2    0    0 -0.32457874177E+02  0.22387138281E+02  0.25351374186E+03  0.28539288729E+03  0.12500074099E+03 0.  0.
        6    2    1    2  501    0  0.32457874177E+02 -0.22387138281E+02 -0.21969515785E+03  0.28139267023E+03  0.17135102836E+03 0.  0.
       24    2    4    4    0    0  0.77955386795E+02 -0.33008208587E+02 -0.18709473068E+03  0.22422879494E+03  0.90041823972E+02 0.  0.
      -11    1    5    5    0    0  0.23318992279E+02 -0.52131066358E+02 -0.13407474263E+03  0.14573077949E+03  0.51099999109E-03 0.  1.
       12    1    5    5    0    0  0.54636394517E+02  0.19122857772E+02 -0.53019988058E+02  0.78498015445E+02  0.00000000000E+00 0. -1.
        5    1    4    4  501    0 -0.45497512618E+02  0.10621070306E+02 -0.32600427160E+02  0.57163875290E+02  0.46999998093E+01 0. -1.
        5    1    3    3  502    0  0.32877606604E+02  0.46108562168E+02  0.15198430257E+03  0.16225983713E+03  0.46999998093E+01 0. -1.
       -5    1    3    3    0  502 -0.65335480781E+02 -0.23721423887E+02  0.10152943930E+03  0.12313305016E+03  0.46999998093E+01 0. -1.
</event>
<event>
10   0  0.1583500E-03  0.2091919E+03  0.7818609E-02  0.1150245E+00
       21   -1    0    0  501  503  0.00000000000E+00  0.00000000000E+00  0.38257137156E+02  0.38257137156E+02  0.00000000000E+00 0. -1.
        2   -1    0    0  503    0  0.00000000000E+00  0.00000000000E+00 -0.95591409250E+03  0.95591409250E+03  0.25500000920E-02 0.  1.
       25    2    1    2    0    0  0.15299732174E+02 -0.11816512617E+03 -0.38785325327E+03  0.42456327274E+03  0.12500699035E+03 0.  0.
        6    2    1    2  501    0 -0.15299732174E+02  0.11816512617E+03 -0.52980370207E+03  0.56960795692E+03  0.17194238283E+03 0.  0.
       24    2    4    4    0    0  0.27382678405E+02  0.12313400364E+03 -0.48529403020E+03  0.50756217702E+03  0.78722765806E+02 0.  0.
      -13    1    5    5    0    0 -0.21920226116E+01  0.74669181201E+02 -0.38617695839E+03  0.39333566573E+03  0.10565999895E+00 0.  1.
       14    1    5    5    0    0  0.29574701017E+02  0.48464822439E+02 -0.99117071817E+02  0.11422651128E+03  0.00000000000E+00 0. -1.
        5    1    4    4  501    0 -0.42682410579E+02 -0.49688774659E+01 -0.44509671861E+02  0.62045779901E+02  0.46999998093E+01 0. -1.
        5    1    3    3  502    0 -0.71938793897E+01 -0.75102977933E+02 -0.36104946240E+03  0.36887804691E+03  0.46999998093E+01 0. -1.
       -5    1    3    3    0  502  0.22493611564E+02 -0.43062148241E+02 -0.26803790876E+02  0.55685225831E+02  0.46999998093E+01 0. -1.
</event>
<event>
10   0  0.1583500E-03  0.2007087E+03  0.7818609E-02  0.1158364E+00
        2   -1    0    0  503    0  0.00000000000E+00  0.00000000000E+00  0.73652990669E+03  0.73652990669E+03  0.00000000000E+00 0. -1.
       21   -1    0    0  501  503  0.00000000000E+00  0.00000000000E+00 -0.57974096824E+02  0.57974096824E+02  0.25500000920E-02 0.  1.
       25    2    1    2    0    0  0.65172930261E+02  0.78907344393E+02  0.50144327776E+03  0.52682352081E+03  0.12499512565E+03 0.  0.
        6    2    1    2  501    0 -0.65172930261E+02 -0.78907344393E+02  0.17711253211E+03  0.26768048270E+03  0.17265605102E+03 0.  0.
       24    2    4    4    0    0 -0.14119196469E+02 -0.43866306533E+02  0.18332615537E+03  0.20527008949E+03  0.80023283115E+02 0.  0.
      -15    1    5    5    0    0 -0.18783807401E+02  0.16889972654E+02  0.92450299163E+02  0.95855715223E+02  0.17769999504E+01 0.  1.
       16    1    5    5    0    0  0.46646109320E+01 -0.60756279188E+02  0.90875856207E+02  0.10941437427E+03  0.00000000000E+00 0. -1.
        5    1    4    4  501    0 -0.51053733792E+02 -0.35041037860E+02 -0.62136232624E+01  0.62410393210E+02  0.46999998093E+01 0. -1.
        5    1    3    3  502    0  0.78542498817E+02  0.48628942079E+02  0.47575409022E+03  0.48466250369E+03  0.46999998093E+01 0.  1.
       -5    1    3    3    0  502 -0.13369568557E+02  0.30278402314E+02  0.25689187543E+02  0.42161017124E+02  0.46999998093E+01 0.  1.
</event>
<event>
10   0  0.1583500E-03  0.2478604E+03  0.7818609E-02  0.1119702E+00
       21   -1    0    0  501  503  0.00000000000E+00  0.00000000000E+00  0.32374003307E+03  0.32374003307E+03  0.00000000000E+00 0.  1.
        2   -1    0    0  503    0  0.00000000000E+00  0.00000000000E+00 -0.19379100058E+04  0.19379100058E+04  0.25500000920E-02 0. -1.
       25    2    1    2    0    0 -0.17831829681E+03  0.16275110258E+02 -0.18832159057E+04  0.18958351823E+04  0.12500638596E+03 0.  0.
        6    2    1    2  501    0  0.17831829681E+03 -0.16275110258E+02  0.26904593303E+03  0.36581485658E+03  0.17138407458E+03 0.  0.
       24    2    4    4    0    0  0.11870068292E+03 -0.58787785982E+02  0.24169653046E+03  0.28750989312E+03  0.81846624225E+02 0.  0.
      -11    1    5    5    0    0 -0.11888997420E+02 -0.38742911007E+01  0.32846010976E+02  0.35145680083E+02  0.51099999109E-03 0.  1.
       12    1    5    5    0    0  0.13058968034E+03 -0.54913494882E+02  0.20885051949E+03  0.25236421303E+03  0.00000000000E+00 0. -1.
        5    1    4    4  501    0  0.59617613894E+02  0.42512675724E+02  0.27349402573E+02  0.78304963463E+02  0.46999998093E+01 0. -1.
        5    1    3    3  502    0 -0.26339543835E+02  0.49869418680E+02 -0.32837554907E+03  0.33321662881E+03  0.46999998093E+01 0.  1.
       -5    1    3    3    0  502 -0.15197875298E+03 -0.33594308421E+02 -0.15548403567E+04  0.15626185535E+04  0.46999998093E+01 0.  1.
</event>
<event>
10   0  0.1583500E-03  0.3480156E+03  0.7818609E-02  0.1065365E+00
        4   -1    0    0  503    0  0.00000000000E+00  0.00000000000E+00  0.83248319419E+03  0.83248416291E+03  0.00000000000E+00 0.  1.
       21   -1    0    0  501  503  0.00000000000E+00  0.00000000000E+00 -0.13819551169E+03  0.13819551169E+03  0.12699999809E+01 0. -1.
       25    2    1    2    0    0  0.30514010799E+03 -0.78497100716E+01  0.31901678005E+03  0.45887592753E+03  0.12499322964E+03 0.  0.
        6    2    1    2  501    0 -0.30514010799E+03  0.78497100716E+01  0.37527090244E+03  0.51180374708E+03  0.16716076648E+03 0.  0.
       24    2    4    4    0    0 -0.70428752189E+02  0.17696862071E+02  0.15919347721E+03  0.19258919441E+03  0.80465188452E+02 0.  0.
      -11    1    5    5    0    0 -0.12942727841E+02 -0.27337514038E+02  0.22801904800E+02  0.37878499713E+02  0.51099999109E-03 0.  1.
       12    1    5    5    0    0 -0.57486024348E+02  0.45034376109E+02  0.13639157242E+03  0.15471069469E+03  0.00000000000E+00 0. -1.
        5    1    4    4  501    0 -0.23471135580E+03 -0.98471519994E+01  0.21607742523E+03  0.31921455267E+03  0.46999998093E+01 0. -1.
        5    1    3    3  502    0  0.10978079973E+03 -0.60559858072E+02  0.14691640131E+03  0.19319896318E+03  0.46999998093E+01 0. -1.
       -5    1    3    3    0  502  0.19535930826E+03  0.52710148000E+02  0.17210037874E+03  0.26567696435E+03  0.46999998093E+01 0. -1.
</event>
<event>
10   0  0.1583500E-03  0.2170218E+03  0.7818609E-02  0.1143558E+00
        2   -1    0    0  503    0  0.00000000000E+00  0.00000000000E+00  0.10663966914E+04  0.10663966914E+04  0.00000000000E+00 0. -1.
       21   -1    0    0  501  503  0.00000000000E+00  0.00000000000E+00 -0.38524202497E+02  0.38524202497E+02  0.25500000920E-02 0.  1.
       25    2    1    2    0    0  0.10942599215E+03  0.72803157170E+02  0.57114109488E+03  0.59925101250E+03  0.12500111307E+03 0.  0.
        6    2    1    2  501    0 -0.10942599215E+03 -0.72803157170E+02  0.45673139403E+03  0.50566988141E+03  0.17269659875E+03 0.  0.
       24    2    4    4    0    0 -0.11247544358E+03 -0.94118256795E+02  0.27027213306E+03  0.31791264819E+03  0.80699778810E+02 0.  0.
      -15    1    5    5    0    0 -0.87292123909E+02 -0.25630448281E+02  0.11755848772E+03  0.14866065566E+03  0.17769999504E+01 0.  1.
       16    1    5    5    0    0 -0.25183319672E+02 -0.68487808514E+02  0.15271364534E+03  0.16925199253E+03  0.00000000000E+00 0. -1.
        5    1    4    4  501    0  0.30494514332E+01  0.21315099625E+02  0.18645926097E+03  0.18775723322E+03  0.46999998093E+01 0. -1.
        5    1    3    3  502    0  0.23424471672E+02  0.79887176253E+02  0.17577124071E+03  0.19454635916E+03  0.46999998093E+01 0. -1.
       -5    1    3    3    0  502  0.86001520476E+02 -0.70840190834E+01  0.39536985416E+03  0.40470465333E+03  0.46999998093E+01 0. -1.
</event>
<event>
10   0  0.1583500E-03  0.1851978E+03  0.7818609E-02  0.1173243E+00
       21   -1    0    0  501  503  0.00000000000E+00  0.00000000000E+00  0.74093752806E+02  0.74093752806E+02  0.00000000000E+00 0.  1.
        2   -1    0    0  503    0  0.00000000000E+00  0.00000000000E+00 -0.10052230138E+04  0.10052230138E+04  0.25500000920E-02 0.  1.
       25    2    1    2    0    0  0.61140347823E+02  0.44013188988E+02 -0.87313825070E+03  0.88525190584E+03  0.12500091608E+03 0.  0.
        6    2    1    2  501    0 -0.61140347823E+02 -0.44013188988E+02 -0.57991010318E+02  0.19406486079E+03  0.16918306647E+03 0.  0.
       24    2    4    4    0    0 -0.88497396640E+02 -0.51431561558E+02 -0.84442536379E+02  0.15501087763E+03  0.80130116050E+02 0.  0.
      -11    1    5    5    0    0 -0.40237542148E+02 -0.54888920006E+02 -0.13888037163E+02  0.69460282997E+02  0.51099999109E-03 0.  1.
       12    1    5    5    0    0 -0.48259854491E+02  0.34573584481E+01 -0.70554499216E+02  0.85550594636E+02  0.00000000000E+00 0. -1.
        5    1    4    4  501    0  0.27357048816E+02  0.74183725701E+01  0.26451526061E+02  0.39053983160E+02  0.46999998093E+01 0. -1.
        5    1    3    3  502    0  0.80874397180E+01 -0.42832234765E+02 -0.24051286143E+03  0.24447603876E+03  0.46999998093E+01 0.  1.
       -5    1    3    3    0  502  0.53052908105E+02  0.86845423753E+02 -0.63262538926E+03  0.64077586707E+03  0.46999998093E+01 0.  1.
</event>
<event>
10   0  0.1583500E-03  0.1816281E+03  0.7818609E-02  0.1177424E+00
        2   -1    0    0  503    0  0.00000000000E+00  0.00000000000E+00  0.77323931081E+03  0.77323931082E+03  0.00000000000E+00 0. -1.
       21   -1    0    0  501  503  0.00000000000E+00  0.00000000000E+00 -0.49048068579E+02  0.49048068579E+02  0.25500000920E-02 0. -1.
       25    2    1    2    0    0 -0.48626244866E+02 -0.42592053967E+02  0.56010737557E+03  0.57751755505E+03  0.12501063746E+03 0.  0.
        6    2    1    2  501    0  0.48626244866E+02  0.42592053967E+02  0.16408386667E+03  0.24476982434E+03  0.16973554978E+03 0.  0.
       24    2    4    4    0    0  0.36205803071E+02 -0.22313973883E+02  0.15465666204E+03  0.17785179979E+03  0.76836228213E+02 0.  0.
      -13    1    5    5    0    0 -0.20265342268E+02  0.87380586329E+01  0.27184570748E+02  0.35014994170E+02  0.10565999895E+00 0.  1.
       14    1    5    5    0    0  0.56471145339E+02 -0.31052032516E+02  0.12747209130E+03  0.14283680562E+03  0.00000000000E+00 0. -1.
        5    1    4    4  501    0  0.12420441795E+02  0.64906027850E+02  0.94272046239E+01  0.66918024559E+02  0.46999998093E+01 0. -1.
        5    1    3    3  502    0 -0.20095089344E+02 -0.74083039212E+02  0.19037059430E+03  0.20531722404E+03  0.46999998093E+01 0. -1.
       -5    1    3    3    0  502 -0.28531155522E+02  0.31490985246E+02  0.36973678127E+03  0.37220033101E+03  0.46999998093E+01 0. -1.
</event>
<event>
10   0  0.1583500E-03  0.1872762E+03  0.7818609E-02  0.1173834E+00
        2   -1    0    0  503    0  0.00000000000E+00  0.00000000000E+00  0.17196404861E+04  0.17196404862E+04  0.00000000000E+00 0.  1.
       21   -1    0    0  501  503  0.00000000000E+00  0.00000000000E+00 -0.25948247089E+02  0.25948247089E+02  0.25500000920E-02 0.  1.
       25    2    1    2    0    0  0.16596643573E+01 -0.61365927779E+02  0.13226717238E+04  0.13299824114E+04  0.12499677605E+03 0.  0.
        6    2    1    2  501    0 -0.16596643573E+01  0.61365927779E+02  0.37102051525E+03  0.41560632186E+03  0.17692897010E+03 0.  0.
       24    2    4    4    0    0 -0.37883533416E+02 -0.26068907938E+02  0.77256314652E+02  0.10693738151E+03  0.57899182604E+02 0.  0.
      -13    1    5    5    0    0 -0.18387591783E+02  0.18008056367E+02  0.27556373382E+02  0.37706213065E+02  0.10565999895E+00 0.  1.
       14    1    5    5    0    0 -0.19495941633E+02 -0.44076964305E+02  0.49699941270E+02  0.69231168448E+02  0.00000000000E+00 0. -1.
        5    1    4    4  501    0  0.36223869059E+02  0.87434835718E+02  0.29376420059E+03  0.30866894035E+03  0.46999998093E+01 0. -1.
        5    1    3    3  502    0 -0.38791658137E+02 -0.73685051929E+02  0.56563812742E+03  0.57175419615E+03  0.46999998093E+01 0. -1.
       -5    1    3    3    0  502  0.40451322494E+02  0.12319124150E+02  0.75703359639E+03  0.75822821523E+03  0.46999998093E+01 0. -1.
</event>
<event>
10   0  0.1583500E-03  0.5459126E+03  0.7818609E-02  0.1003355E+00
       21   -1    0    0  501  503  0.00000000000E+00  0.00000000000E+00  0.30268548726E+03  0.30268548726E+03  0.00000000000E+00 0. -1.
        2   -1    0    0  503    0  0.00000000000E+00  0.00000000000E+00 -0.14358664305E+04  0.14358664305E+04  0.25500000920E-02 0. -1.
       25    2    1    2    0    0 -0.22978491933E+01 -0.51562492312E+03 -0.10631233161E+04  0.11881623738E+04  0.12499719933E+03 0.  0.
        6    2    1    2  501    0  0.22978491933E+01  0.51562492312E+03 -0.70057627173E+02  0.55038954398E+03  0.17929371864E+03 0.  0.
       24    2    4    4    0    0 -0.47874317600E+02  0.41065530781E+03 -0.14596427286E+02  0.42141706184E+03  0.80309104091E+02 0.  0.
      -15    1    5    5    0    0 -0.15619326813E+01  0.41469767839E+02  0.22937592320E+02  0.47449680174E+02  0.17769999504E+01 0.  1.
       16    1    5    5    0    0 -0.46312384919E+02  0.36918553997E+03 -0.37534019606E+02  0.37396738166E+03  0.00000000000E+00 0. -1.
        5    1    4    4  501    0  0.50172166793E+02  0.10496961531E+03 -0.55461199887E+02  0.12897248214E+03  0.46999998093E+01 0. -1.
        5    1    3    3  502    0 -0.38950926208E+02 -0.68295657850E+02 -0.11801861754E+03  0.14188712281E+03  0.46999998093E+01 0.  1.
       -5    1    3    3    0  502  0.36653077015E+02 -0.44732926527E+03 -0.94510469852E+03  0.10462752510E+04  0.46999998093E+01 0.  1.
</event>
<event>
10   0  0.1583500E-03  0.1939048E+03  0.7818609E-02  0.1164843E+00
       21   -1    0    0  501  503  0.00000000000E+00  0.00000000000E+00  0.44829657507E+02  0.44829657507E+02  0.00000000000E+00 0. -1.
        2   -1    0    0  503    0  0.00000000000E+00  0.00000000000E+00 -0.67592228771E+03  0.67592228771E+03  0.25500000920E-02 0. -1.
       25    2    1    2    0    0  0.45803803037E+02  0.77698870432E+02 -0.28802474782E+03  0.32667752235E+03  0.12499938163E+03 0.  0.
        6    2    1    2  501    0 -0.45803803037E+02 -0.77698870432E+02 -0.34306788237E+03  0.39407442287E+03  0.17165073844E+03 0.  0.
       24    2    4    4    0    0  0.11905847459E+02 -0.23498665782E+02 -0.27973475655E+03  0.29257939458E+03  0.81591859944E+02 0.  0.
      -13    1    5    5    0    0 -0.85108101661E+01 -0.48271106997E+02 -0.11952276071E+03  0.12918295225E+03  0.10565999895E+00 0.  1.
       14    1    5    5    0    0  0.20416657625E+02  0.24772441215E+02 -0.16021199585E+03  0.16339644233E+03  0.00000000000E+00 0. -1.
        5    1    4    4  501    0 -0.57709650496E+02 -0.54200204650E+02 -0.63333125819E+02  0.10149502830E+03  0.46999998093E+01 0. -1.
        5    1    3    3  502    0 -0.17366578232E+02  0.32637315449E+02 -0.22074410724E+03  0.22386791480E+03  0.46999998093E+01 0.  1.
       -5    1    3    3    0  502  0.63170381269E+02  0.45061554983E+02 -0.67280640584E+02  0.10280960754E+03  0.46999998093E+01 0.  1.
</event>
<event>
10   0  0.1583500E-03  0.1892687E+03  0.7818609E-02  0.1170174E+00
       21   -1    0    0  501  503  0.00000000000E+00  0.00000000000E+00  0.66906533663E+02  0.66906533663E+02  0.00000000000E+00 0. -1.
        2   -1    0    0  503    0  0.00000000000E+00  0.00000000000E+00 -0.15243363374E+04  0.15243363374E+04  0.25500000920E-02 0. -1.
       25    2    1    2    0    0 -0.34361225505E+02 -0.68543706039E+02 -0.13783324041E+04  0.13861111253E+04  0.12499960913E+03 0.  0.
        6    2    1    2  501    0  0.34361225505E+02  0.68543706039E+02 -0.79097399648E+02  0.20513174569E+03  0.17304248323E+03 0.  0.
       24    2    4    4    0    0  0.19452643802E+02  0.46929407094E+00 -0.10230177210E+03  0.13153198840E+03  0.80351638495E+02 0.  0.
      -15    1    5    5    0    0 -0.23825461287E+02  0.23591666217E+02 -0.39829705626E+02  0.52093977574E+02  0.17769999504E+01 0.  1.
       16    1    5    5    0    0  0.43278105090E+02 -0.23122372146E+02 -0.62472066479E+02  0.79438010826E+02  0.00000000000E+00 0. -1.
        5    1    4    4  501    0  0.14908581703E+02  0.68074411968E+02  0.23204372457E+02  0.73599757285E+02  0.46999998093E+01 0. -1.
        5    1    3    3  502    0 -0.12406029595E+01 -0.10509322885E+01 -0.10169098102E+04  0.10169219713E+04  0.46999998093E+01 0. -1.
       -5    1    3    3    0  502 -0.33120622546E+02 -0.67492773750E+02 -0.36142259387E+03  0.36918915409E+03  0.46999998093E+01 0. -1.
</event>
<event>
10   0  0.1583500E-03  0.2187506E+03  0.7818609E-02  0.1142112E+00
       21   -1    0    0  501  503  0.00000000000E+00  0.00000000000E+00  0.17419849395E+02  0.17419849395E+02  0.00000000000E+00 0.  1.
        2   -1    0    0  503    0  0.00000000000E+00  0.00000000000E+00 -0.36996996888E+04  0.36996996888E+04  0.25500000920E-02 0. -1.
       25    2    1    2    0    0  0.41690100513E+02  0.12751970429E+03 -0.28714841100E+04  0.28773329369E+04  0.12499798501E+03 0.  0.
        6    2    1    2  501    0 -0.41690100513E+02 -0.12751970429E+03 -0.81079572936E+03  0.83978660126E+03  0.17277870659E+03 0.  0.
       24    2    4    4    0    0 -0.43216700867E+02 -0.69393353967E+02 -0.24267002147E+03  0.26867372882E+03  0.81324734413E+02 0.  0.
      -13    1    5    5    0    0 -0.48667778216E+01 -0.71855050888E+02 -0.19211765339E+03  0.20517318970E+03  0.10565999895E+00 0.  1.
       14    1    5    5    0    0 -0.38349923046E+02  0.24616969211E+01 -0.50552368081E+02  0.63500539116E+02  0.00000000000E+00 0. -1.
        5    1    4    4  501    0  0.15266003547E+01 -0.58126350322E+02 -0.56812570789E+03  0.57111287244E+03  0.46999998093E+01 0. -1.
        5    1    3    3  502    0  0.29245972200E+01 -0.24074013708E+02 -0.56713776365E+03  0.56767547451E+03  0.46999998093E+01 0. -1.
       -5    1    3    3    0  502  0.38765503293E+02  0.15159371800E+03 -0.23043463464E+04  0.23096574624E+04  0.46999998093E+01 0. -1.
</event>
<event>
10   0  0.1583500E-03  0.1791730E+03  0.7818609E-02  0.1179016E+00
       -2   -1    0    0    0  501  0.00000000000E+00  0.00000000000E+00  0.35250707386E+03  0.35250707387E+03  0.00000000000E+00 0.  1.
       21   -1    0    0  501  503  0.00000000000E+00  0.00000000000E+00 -0.20369502007E+03  0.20369502007E+03  0.25500000920E-02 0.  1.
       25    2    1    2    0    0 -0.59041738553E+02  0.29876001188E+02  0.29356787291E+03  0.32586058168E+03  0.12499808139E+03 0.  0.
       -6    2    1    2    0  503  0.59041738553E+02 -0.29876001188E+02 -0.14475581912E+03  0.23034151226E+03  0.16650664481E+03 0.  0.
      -24    2    4    4    0    0  0.39453597698E+02 -0.82808352270E+02 -0.10168300894E+03  0.15918755223E+03  0.81163002048E+02 0.  0.
       13    1    5    5    0    0  0.55201077095E+02 -0.62453899158E+02 -0.10407818492E+03  0.13334139707E+03  0.10565999895E+00 0. -1.
      -14    1    5    5    0    0 -0.15747479397E+02 -0.20354453112E+02  0.23951759746E+01  0.25846155164E+02  0.00000000000E+00 0.  1.
       -5    1    4    4    0  503  0.19588140856E+02  0.52932351082E+02 -0.43072810179E+02  0.71153960031E+02  0.46999998093E+01 0.  1.
        5    1    3    3  502    0  0.10526394137E+02 -0.32940393364E+02  0.15238934423E+03  0.15633450266E+03  0.46999998093E+01 0.  1.
       -5    1    3    3    0  502 -0.69568132690E+02  0.62816394552E+02  0.14117852868E+03  0.16952607902E+03  0.46999998093E+01 0.  1.
</event>
<event>
10   0  0.1583500E-03  0.2448983E+03  0.7818609E-02  0.1121742E+00
       21   -1    0    0  501  503  0.00000000000E+00  0.00000000000E+00  0.23923790912E+03  0.23923790912E+03  0.00000000000E+00 0. -1.
       -2   -1    0    0    0  501  0.00000000000E+00  0.00000000000E+00 -0.26408127726E+03  0.26408127727E+03  0.25500000920E-02 0.  1.
       25    2    1    2    0    0 -0.17101451452E+03 -0.37683228307E+02  0.89523546029E+02  0.23303231702E+03  0.12499442230E+03 0.  0.
       -6    2    1    2    0  503  0.17101451452E+03  0.37683228307E+02 -0.11436691417E+03  0.27028686938E+03  0.17119933069E+03 0.  0.
      -24    2    4    4    0    0  0.15017249146E+03 -0.21879889745E+02 -0.46847419149E+02  0.17774970299E+03  0.79810835507E+02 0.  0.
       15    1    5    5    0    0  0.10798306598E+03 -0.27174489754E+01 -0.67105972404E+02  0.12717742068E+03  0.17769999504E+01 0. -1.
      -16    1    5    5    0    0  0.42189425477E+02 -0.19162440770E+02  0.20258553255E+02  0.50572282313E+02  0.00000000000E+00 0.  1.
       -5    1    4    4    0  503  0.20842023062E+02  0.59563118052E+02 -0.67519495020E+02  0.92537166390E+02  0.46999998093E+01 0.  1.
        5    1    3    3  502    0 -0.11089815488E+03 -0.43297629607E+02  0.11658992315E+03  0.16669848729E+03  0.46999998093E+01 0.  1.
       -5    1    3    3    0  502 -0.60116359639E+02  0.56144013006E+01 -0.27066377116E+02  0.66333829730E+02  0.46999998093E+01 0.  1.
</event>
<event>
10   0  0.1583500E-03  0.1812819E+03  0.7818609E-02  0.1178458E+00
       21   -1    0    0  501  503  0.00000000000E+00  0.00000000000E+00  0.10379713401E+03  0.10379713401E+03  0.00000000000E+00 0.  1.
        2   -1    0    0  503    0  0.00000000000E+00  0.00000000000E+00 -0.54008507943E+03  0.54008507944E+03  0.25500000920E-02 0. -1.
       25    2    1    2    0    0  0.27945938652E+02  0.52219414701E+02 -0.44137518156E+03  0.46252890243E+03  0.12495235863E+03 0.  0.
        6    2    1    2  501    0 -0.27945938652E+02 -0.52219414701E+02  0.50872361345E+01  0.18135331101E+03  0.17133388657E+03 0.  0.
       24    2    4    4    0    0  0.71586715756E+00 -0.38208258161E+02  0.64603542702E+02  0.11366215675E+03  0.85352707574E+02 0.  0.
      -15    1    5    5    0    0  0.37282906858E+00 -0.35793419302E+02  0.85456221726E+02  0.92667315853E+02  0.17769999504E+01 0.  1.
       16    1    5    5    0    0  0.34303808898E+00 -0.24148388593E+01 -0.20852679025E+02  0.20994840898E+02  0.00000000000E+00 0. -1.
        5    1    4    4  501    0 -0.28661805810E+02 -0.14011156540E+02 -0.59516306567E+02  0.67691154263E+02  0.46999998093E+01 0. -1.
        5    1    3    3  502    0  0.56564728820E+02 -0.45520699564E+01 -0.98473900506E+02  0.11375187456E+03  0.46999998093E+01 0. -1.
       -5    1    3    3    0  502 -0.28618790168E+02  0.56771484658E+02 -0.34290128105E+03  0.34877702787E+03  0.46999998093E+01 0. -1.
</event>
<event>
10   0  0.1583500E-03  0.2125574E+03  0.7818609E-02  0.1147229E+00
       21   -1    0    0  501  503  0.00000000000E+00  0.00000000000E+00  0.55451444602E+02  0.55451444602E+02  0.00000000000E+00 0. -1.
        2   -1    0    0  503    0  0.00000000000E+00  0.00000000000E+00 -0.84781217853E+03  0.84781217854E+03  0.25500000920E-02 0. -1.
       25    2    1    2    0    0 -0.32873268278E+02 -0.12069811455E+03 -0.56495332015E+03  0.59198436007E+03  0.12499816795E+03 0.  0.
        6    2    1    2  501    0  0.32873268278E+02  0.12069811455E+03 -0.22740741378E+03  0.31127926307E+03  0.17184865770E+03 0.  0.
       24    2    4    4    0    0 -0.28071577917E+02  0.20000865899E+02 -0.56665532811E+02  0.10384471899E+03  0.79904286056E+02 0.  0.
      -13    1    5    5    0    0 -0.24131153990E+02  0.16659183508E+02  0.14346719781E+02  0.32644762529E+02  0.10565999895E+00 0.  1.
       14    1    5    5    0    0 -0.39404239262E+01  0.33416823904E+01 -0.71012252592E+02  0.71199956461E+02  0.00000000000E+00 0. -1.
        5    1    4    4  501    0  0.60944846195E+02  0.10069724865E+03 -0.17074188097E+03  0.20743454408E+03  0.46999998093E+01 0. -1.
        5    1    3    3  502    0  0.78676794115E+01 -0.12429975473E+03 -0.49822340440E+03  0.51357665454E+03  0.46999998093E+01 0. -1.
       -5    1    3    3    0  502 -0.40740947690E+02  0.36016401809E+01 -0.66729915753E+02  0.78407705522E+02  0.46999998093E+01 0. -1.
</event>
<event>
10   0  0.1583500E-03  0.2026409E+03  0.7818609E-02  0.1156310E+00
        4   -1    0    0  503    0  0.00000000000E+00  0.00000000000E+00  0.14909723982E+03  0.14910264860E+03  0.00000000000E+00 0.  1.
       21   -1    0    0  501  503  0.00000000000E+00  0.00000000000E+00 -0.27429566819E+03  0.27429566819E+03  0.12699999809E+01 0.  1.
       25    2    1    2    0    0  0.79886218612E+02 -0.71539094627E+02  0.30945541625E+02  0.16757755734E+03  0.12499984477E+03 0.  0.
        6    2    1    2  501    0 -0.79886218612E+02  0.71539094627E+02 -0.15614397000E+03  0.25582075945E+03  0.17194089571E+03 0.  0.
       24    2    4    4    0    0 -0.11790262795E+03  0.78936571124E+02 -0.13797909296E+03  0.21278562505E+03  0.78150369120E+02 0.  0.
      -13    1    5    5    0    0 -0.91347788399E+02  0.93212296542E+02 -0.10071629781E+03  0.16485367597E+03  0.10565999895E+00 0.  1.
       14    1    5    5    0    0 -0.26554839551E+02 -0.14275725418E+02 -0.37262795153E+02  0.47931949078E+02  0.00000000000E+00 0. -1.
        5    1    4    4  501    0  0.38016409338E+02 -0.73974764974E+01 -0.18164877037E+02  0.43035134408E+02  0.46999998093E+01 0. -1.
        5    1    3    3  502    0 -0.93458074730E+01 -0.49995515969E+02 -0.28132168024E+02  0.58312988349E+02  0.46999998093E+01 0. -1.
       -5    1    3    3    0  502  0.89232026085E+02 -0.21543578658E+02  0.59077709649E+02  0.10926456899E+03  0.46999998093E+01 0. -1.
</event>
<event>
10   0  0.1583500E-03  0.2215068E+03  0.7818609E-02  0.1139166E+00
        2   -1    0    0  503    0  0.00000000000E+00  0.00000000000E+00  0.37755919433E+03  0.37755919434E+03  0.00000000000E+00 0. -1.
       21   -1    0    0  501  503  0.00000000000E+00  0.00000000000E+00 -0.11368426940E+03  0.11368426940E+03  0.25500000920E-02 0. -1.
       25    2    1    2    0    0  0.80081711415E+02  0.11794663868E+03  0.91251278603E+02  0.21041576686E+03  0.12499403593E+03 0.  0.
        6    2    1    2  501    0 -0.80081711415E+02 -0.11794663868E+03  0.17262364633E+03  0.28082769688E+03  0.16953106495E+03 0.  0.
       24    2    4    4    0    0 -0.40356799873E+02 -0.36758321212E+02  0.16385150713E+03  0.18989556881E+03  0.78950397024E+02 0.  0.
      -11    1    5    5    0    0 -0.31925641549E+02 -0.59952853880E+02  0.13983730502E+03  0.15546080906E+03  0.51099999109E-03 0.  1.
       12    1    5    5    0    0 -0.84311583240E+01  0.23194532667E+02  0.24014202112E+02  0.34434759755E+02  0.00000000000E+00 0. -1.
        5    1    4    4  501    0 -0.39724911543E+02 -0.81188317465E+02  0.87721391960E+01  0.90932128063E+02  0.46999998093E+01 0. -1.
        5    1    3    3  502    0  0.17022466493E+01  0.92788600557E+01 -0.28666413530E+02  0.30542562932E+02  0.46999998093E+01 0. -1.
       -5    1    3    3    0  502  0.78379464766E+02  0.10866777862E+03  0.11991769213E+03  0.17987320393E+03  0.46999998093E+01 0. -1.
</event>
<event>
10   0  0.1583500E-03  0.2022473E+03  0.7818609E-02  0.1157284E+00
       21   -1    0    0  501  503  0.00000000000E+00  0.00000000000E+00  0.17900340205E+03  0.17900340205E+03  0.00000000000E+00 0. -1.
        2   -1    0    0  503    0  0.00000000000E+00  0.00000000000E+00 -0.18530895383E+03  0.18530895385E+03  0.25500000920E-02 0. -1.
       25    2    1    2    0    0 -0.10212407193E+03  0.12849320260E+02  0.11648127270E+01  0.16192714816E+03  0.12499845369E+03 0.  0.
        6    2    1    2  501    0  0.10212407193E+03 -0.12849320260E+02 -0.74703645106E+01  0.20238520774E+03  0.17409633789E+03 0.  0.
       24    2    4    4    0    0  0.52100308113E+02 -0.60401316686E+02 -0.50843419537E+02  0.12073423585E+03  0.75026270284E+02 0.  0.
      -13    1    5    5    0    0  0.12107273088E+02 -0.51748902245E+02 -0.58574667542E+02  0.79091957789E+02  0.10565999895E+00 0.  1.
       14    1    5    5    0    0  0.39993035026E+02 -0.86524144409E+01  0.77312480052E+01  0.41642278059E+02  0.00000000000E+00 0. -1.
        5    1    4    4  501    0  0.50023763816E+02  0.47551996426E+02  0.43373055026E+02  0.81650971892E+02  0.46999998093E+01 0. -1.
        5    1    3    3  502    0 -0.11733056282E+03 -0.16664635506E+02 -0.22720403177E+02  0.12075793045E+03  0.46999998093E+01 0.  1.
       -5    1    3    3    0  502  0.15206490888E+02  0.29513955766E+02  0.23885215904E+02  0.41169217713E+02  0.46999998093E+01 0.  1.
</event>
<event>
10   0  0.1583500E-03  0.1841131E+03  0.7818609E-02  0.1175476E+00
       21   -1    0    0  501  503  0.00000000000E+00  0.00000000000E+00  0.50893505274E+02  0.50893505274E+02  0.00000000000E+00 0. -1.
        2   -1    0    0  503    0  0.00000000000E+00  0.00000000000E+00 -0.80440747568E+03  0.80440747568E+03  0.25500000920E-02 0.  1.
       25    2    1    2    0    0 -0.40737748864E+02  0.51502675128E+02 -0.59755531146E+03  0.61401125464E+03  0.12500152334E+03 0.  0.
        6    2    1    2  501    0  0.40737748864E+02 -0.51502675128E+02 -0.15595865894E+03  0.24128972632E+03  0.17200447378E+03 0.  0.
       24    2    4    4    0    0 -0.68113619619E+01 -0.21286649857E+01 -0.10461932627E+02  0.80385723309E+02  0.79381903550E+02 0.  0.
      -13    1    5    5    0    0 -0.31731730539E+02 -0.25851214482E+02  0.74415247614E+01  0.41600185913E+02  0.10565999895E+00 0.  1.
       14    1    5    5    0    0  0.24920368577E+02  0.23722549496E+02 -0.17903457389E+02  0.38785537396E+02  0.00000000000E+00 0. -1.
        5    1    4    4  501    0  0.47549110826E+02 -0.49374010143E+02 -0.14549672631E+03  0.16090400301E+03  0.46999998093E+01 0. -1.
        5    1    3    3  502    0 -0.58359693429E+02 -0.20995494045E+01 -0.12468439997E+03  0.13776266373E+03  0.46999998093E+01 0. -1.
       -5    1    3    3    0  502  0.17621944565E+02  0.53602224533E+02 -0.47287091149E+03  0.47624859090E+03  0.46999998093E+01 0. -1.
</event>
<event>
10   0  0.1583500E-03  0.2511451E+03  0.7818609E-02  0.1117629E+00
       21   -1    0    0  501  503  0.00000000000E+00  0.00000000000E+00  0.24860464004E+03  0.24860464004E+03  0.00000000000E+00 0.  1.
       -4   -1    0    0    0  501  0.00000000000E+00  0.00000000000E+00 -0.22498068269E+03  0.22498426720E+03  0.12699999809E+01 0. -1.
       25    2    1    2    0    0 -0.57213148660E+02 -0.17319573867E+03  0.24215234724E+02  0.22244311147E+03  0.12499780789E+03 0.  0.
       -6    2    1    2    0  503  0.57213148660E+02  0.17319573867E+03 -0.59127737577E+00  0.25114579577E+03  0.17263763451E+03 0.  0.
      -24    2    4    4    0    0  0.43288453795E+02  0.26207315500E+02  0.33850047753E+02  0.99462610978E+02  0.78652855206E+02 0.  0.
       13    1    5    5    0    0  0.42648599611E+02  0.27114294145E+02 -0.13332389645E+02  0.52267119430E+02  0.10565999895E+00 0. -1.
      -14    1    5    5    0    0  0.63985418327E+00 -0.90697864495E+00  0.47182437398E+02  0.47195491548E+02  0.00000000000E+00 0.  1.
       -5    1    4    4    0  503  0.13924694865E+02  0.14698842317E+03 -0.34441325129E+02  0.15168318479E+03  0.46999998093E+01 0.  1.
        5    1    3    3  502    0  0.36114328663E+02 -0.21717080221E+02  0.11870570171E+02  0.44032678121E+02  0.46999998093E+01 0.  1.
       -5    1    3    3    0  502 -0.93327477323E+02 -0.15147865845E+03  0.12344664553E+02  0.17841043335E+03  0.46999998093E+01 0.  1.
</event>
<event>
10   0  0.1583500E-03  0.1985563E+03  0.7818609E-02  0.1159622E+00
        2   -1    0    0  503    0  0.00000000000E+00  0.00000000000E+00  0.36365887678E+04  0.36365887678E+04  0.00000000000E+00 0.  1.
       21   -1    0    0  501  503  0.00000000000E+00  0.00000000000E+00 -0.23883414549E+02  0.23883414549E+02  0.25500000920E-02 0.  1.
       25    2    1    2    0    0  0.88092099571E+02  0.53599809883E+02  0.31828766953E+04  0.31869985696E+04  0.12499066852E+03 0.  0.
        6    2    1    2  501    0 -0.88092099571E+02 -0.53599809883E+02  0.42982865793E+03  0.47347361277E+03  0.16968037362E+03 0.  0.
       24    2    4    4    0    0 -0.19291641385E+02  0.29790677586E+02  0.15786416290E+03  0.18077196775E+03  0.80608675074E+02 0.  0.
      -15    1    5    5    0    0 -0.32512242141E+02  0.33623723908E+02  0.38468225458E+02  0.60585169780E+02  0.17769999504E+01 0.  1.
       16    1    5    5    0    0  0.13220600756E+02 -0.38330463225E+01  0.11939593744E+03  0.12018679797E+03  0.00000000000E+00 0. -1.
        5    1    4    4  501    0 -0.68800458186E+02 -0.83390487469E+02  0.27196449503E+03  0.29270164503E+03  0.46999998093E+01 0. -1.
        5    1    3    3  502    0  0.23032169973E+02  0.14274209654E+02  0.11749024329E+03  0.12066599016E+03  0.46999998093E+01 0. -1.
       -5    1    3    3    0  502  0.65059929599E+02  0.39325600229E+02  0.30653864520E+04  0.30663325794E+04  0.46999998093E+01 0. -1.
</event>
<event>
10   0  0.1583500E-03  0.1727790E+03  0.7818609E-02  0.1188595E+00
       21   -1    0    0  501  503  0.00000000000E+00  0.00000000000E+00  0.17809386012E+03  0.17809386012E+03  0.00000000000E+00 0.  1.
        2   -1    0    0  503    0  0.00000000000E+00  0.00000000000E+00 -0.14696790735E+03  0.14696790737E+03  0.25500000920E-02 0.  1.
       25    2    1    2    0    0 -0.70384892976E+01 -0.23282458739E+02 -0.46599455659E+02  0.13560507867E+03  0.12500245948E+03 0.  0.
        6    2    1    2  501    0  0.70384892976E+01  0.23282458739E+02  0.77725408435E+02  0.18945668882E+03  0.17105842454E+03 0.  0.
       24    2    4    4    0    0  0.40021838121E+02  0.71019522901E+02  0.42314814097E+02  0.12131911634E+03  0.79260736421E+02 0.  0.
      -11    1    5    5    0    0 -0.69760863433E+00  0.72198701757E+02  0.33709743827E+02  0.79683662204E+02  0.51099999109E-03 0.  1.
       12    1    5    5    0    0  0.40719446755E+02 -0.11791788553E+01  0.86050702706E+01  0.41635454137E+02  0.00000000000E+00 0. -1.
        5    1    4    4  501    0 -0.32983348823E+02 -0.47737064163E+02  0.35410594338E+02  0.68137572484E+02  0.46999998093E+01 0. -1.
        5    1    3    3  502    0  0.44002101901E+02 -0.22497732266E+02 -0.64424147741E+02  0.81331997019E+02  0.46999998093E+01 0. -1.
       -5    1    3    3    0  502 -0.51040591198E+02 -0.78472647267E+00  0.17824692082E+02  0.54273081648E+02  0.46999998093E+01 0. -1.
</event>
<event>
10   0  0.1583500E-03  0.1812883E+03  0.7818609E-02  0.1178591E+00
       21   -1    0    0  501  503  0.00000000000E+00  0.00000000000E+00  0.24718790996E+02  0.24718790996E+02  0.00000000000E+00 0. -1.
        2   -1    0    0  503    0  0.00000000000E+00  0.00000000000E+00 -0.15374985139E+04  0.15374985139E+04  0.25500000920E-02 0. -1.
       25    2    1    2    0    0 -0.45740181924E+02 -0.35793370161E+02 -0.11333535714E+04  0.11417061429E+04  0.12501707628E+03 0.  0.
        6    2    1    2  501    0  0.45740181924E+02  0.35793370161E+02 -0.37942615155E+03  0.42051116203E+03  0.17173265073E+03 0.  0.
       24    2    4    4    0    0 -0.28679133021E+02  0.56732951270E+02 -0.22628563309E+03  0.24889878227E+03  0.81879763342E+02 0.  0.
      -13    1    5    5    0    0  0.18080210761E+02 -0.11904852460E+01 -0.10528554524E+03  0.10683336781E+03  0.10565999895E+00 0.  1.
       14    1    5    5    0    0 -0.46759343782E+02  0.57923436516E+02 -0.12100008785E+03  0.14206541447E+03  0.00000000000E+00 0. -1.
        5    1    4    4  501    0  0.74419314945E+02 -0.20939581110E+02 -0.15314051846E+03  0.17161237976E+03  0.46999998093E+01 0. -1.
        5    1    3    3  502    0  0.12976679783E+02  0.37058824048E+02 -0.48630917792E+03  0.48791439534E+03  0.46999998093E+01 0.  1.
       -5    1    3    3    0  502 -0.58716861707E+02 -0.72852194209E+02 -0.64704439346E+03  0.65379174755E+03  0.46999998093E+01 0.  1.
</event>
<event>
10   0  0.1583500E-03  0.3703132E+03  0.7818609E-02  0.1056510E+00
        2   -1    0    0  503    0  0.00000000000E+00  0.00000000000E+00  0.47728982613E+03  0.47728982613E+03  0.00000000000E+00 0. -1.
       21   -1    0    0  501  503  0.00000000000E+00  0.00000000000E+00 -0.33021016141E+03  0.33021016141E+03  0.25500000920E-02 0.  1.
       25    2    1    2    0    0  0.28737468716E+03  0.15723464098E+03  0.24100926137E+03  0.42545992152E+03  0.12499495035E+03 0.  0.
        6    2    1    2  501    0 -0.28737468716E+03 -0.15723464098E+03 -0.93929596657E+02  0.38204006602E+03  0.17269887022E+03 0.  0.
       24    2    4    4    0    0 -0.23670898846E+03 -0.88907518112E+02 -0.14170349582E+02  0.26533858259E+03  0.79171160197E+02 0.  0.
      -13    1    5    5    0    0 -0.15697974633E+03 -0.81349232487E+02  0.20653686782E+02  0.17800821420E+03  0.10565999895E+00 0.  1.
       14    1    5    5    0    0 -0.79729242137E+02 -0.75582856249E+01 -0.34824036364E+02  0.87330368384E+02  0.00000000000E+00 0. -1.
        5    1    4    4  501    0 -0.50665698697E+02 -0.68327122866E+02 -0.79759247075E+02  0.11670148343E+03  0.46999998093E+01 0. -1.
        5    1    3    3  502    0  0.25180111307E+03  0.12300480954E+03  0.24938681994E+03  0.37516644262E+03  0.46999998093E+01 0. -1.
       -5    1    3    3    0  502  0.35573574095E+02  0.34229831441E+02 -0.83775585708E+01  0.50293478903E+02  0.46999998093E+01 0. -1.
</event>
<event>
10   0  0.1583500E-03  0.1787516E+03  0.7818609E-02  0.1181766E+00
       21   -1    0    0  501  503  0.00000000000E+00  0.00000000000E+00  0.42562012916E+03  0.42562012916E+03  0.00000000000E+00 0. -1.
        2   -1    0    0  503    0  0.00000000000E+00  0.00000000000E+00 -0.58261705308E+02  0.58261705364E+02  0.25500000920E-02 0. -1.
       25    2    1    2    0    0 -0.84990143583E+01  0.47237891668E+02  0.12886885394E+03  0.18583921180E+03  0.12500151788E+03 0.  0.
        6    2    1    2  501    0  0.84990143583E+01 -0.47237891668E+02  0.23848956992E+03  0.29804262273E+03  0.17218733504E+03 0.  0.
       24    2    4    4    0    0  0.54204117003E+01 -0.62003384070E+01  0.32528551592E+02  0.87957902579E+02  0.81305970863E+02 0.  0.
      -15    1    5    5    0    0  0.27596387914E+02  0.19949232079E+02  0.40311763793E+02  0.52798944264E+02  0.17769999504E+01 0.  1.
       16    1    5    5    0    0 -0.22175976214E+02 -0.26149570486E+02 -0.77832122012E+01  0.35158958315E+02  0.00000000000E+00 0. -1.
        5    1    4    4  501    0  0.30786026580E+01 -0.41037553261E+02  0.20596101833E+03  0.21008472015E+03  0.46999998093E+01 0. -1.
        5    1    3    3  502    0 -0.29682600580E+02 -0.31540888103E+02  0.78702831941E+02  0.89956156839E+02  0.46999998093E+01 0.  1.
       -5    1    3    3    0  502  0.21183586222E+02  0.78778779771E+02  0.50166021997E+02  0.95883054961E+02  0.46999998093E+01 0.  1.
</event>
<event>
10   0  0.1583500E-03  0.1733274E+03  0.7818609E-02  0.1188278E+00
        2   -1    0    0  503    0  0.00000000000E+00  0.00000000000E+00  0.73097111376E+02  0.73097111421E+02  0.00000000000E+00 0. -1.
       21   -1    0    0  501  503  0.00000000000E+00  0.00000000000E+00 -0.43065494523E+03  0.43065494523E+03  0.25500000920E-02 0. -1.
       25    2    1    2    0    0 -0.57983861146E+01 -0.21860426054E+02 -0.26059755637E+02  0.12967536711E+03  0.12500036185E+03 0.  0.
        6    2    1    2  501    0  0.57983861146E+01  0.21860426054E+02 -0.33149807822E+03  0.37407668954E+03  0.17184555359E+03 0.  0.
       24    2    4    4    0    0 -0.29248082866E+01 -0.56795644269E+02 -0.13947596828E+03  0.16633297190E+03  0.70560697982E+02 0.  0.
      -11    1    5    5    0    0  0.32485173953E+02 -0.19092854736E+02 -0.45631623289E+02  0.59178278726E+02  0.51099999109E-03 0.  1.
       12    1    5    5    0    0 -0.35409982240E+02 -0.37702789533E+02 -0.93844344996E+02  0.10715469317E+03  0.00000000000E+00 0. -1.
        5    1    4    4  501    0  0.87231944011E+01  0.78656070323E+02 -0.19202210994E+03  0.20774371765E+03  0.46999998093E+01 0. -1.
        5    1    3    3  502    0  0.10868628631E+02 -0.40582545024E+02 -0.68305091898E+02  0.80328983725E+02  0.46999998093E+01 0.  1.
       -5    1    3    3    0  502 -0.16667014746E+02  0.18722118969E+02  0.42245336261E+02  0.49346383386E+02  0.46999998093E+01 0.  1.
</event>
<event>
10   0  0.1583500E-03  0.2011888E+03  0.7818609E-02  0.1157466E+00
       21   -1    0    0  501  503  0.00000000000E+00  0.00000000000E+00  0.10744434684E+03  0.10744434684E+03  0.00000000000E+00 0. -1.
        2   -1    0    0  503    0  0.00000000000E+00  0.00000000000E+00 -0.34111535394E+03  0.34111535395E+03  0.25500000920E-02 0. -1.
       25    2    1    2    0    0 -0.92796412786E+02  0.50936509933E+02 -0.38499948035E+02  0.16825862411E+03  0.12499206502E+03 0.  0.
        6    2    1    2  501    0  0.92796412786E+02 -0.50936509933E+02 -0.19517105907E+03  0.28030107668E+03  0.17108842456E+03 0.  0.
       24    2    4    4    0    0  0.10875883670E+03 -0.75796259182E+02 -0.11001493750E+03  0.19004332826E+03  0.80247259619E+02 0.  0.
      -13    1    5    5    0    0  0.72529078506E+02 -0.74818943898E+01 -0.76755187873E+02  0.10586697314E+03  0.10565999895E+00 0.  1.
       14    1    5    5    0    0  0.36229758199E+02 -0.68314364793E+02 -0.33259749625E+02  0.84176355120E+02  0.00000000000E+00 0. -1.
        5    1    4    4  501    0 -0.15962423918E+02  0.24859749250E+02 -0.85156121571E+02  0.90257748417E+02  0.46999998093E+01 0. -1.
        5    1    3    3  502    0  0.23370019405E+02  0.11159084360E+02 -0.36956175004E+02  0.45371046273E+02  0.46999998093E+01 0.  1.
       -5    1    3    3    0  502 -0.11616643219E+03  0.39777425573E+02 -0.15437730308E+01  0.12288757784E+03  0.46999998093E+01 0.  1.
</event>
<event>
10   0  0.1583500E-03  0.2262655E+03  0.7818609E-02  0.1135462E+00
       -2   -1    0    0    0  501  0.00000000000E+00  0.00000000000E+00  0.78342159732E+03  0.78342159732E+03  0.00000000000E+00 0. -1.
       21   -1    0    0  501  503  0.00000000000E+00  0.00000000000E+00 -0.20757826477E+03  0.20757826477E+03  0.25500000920E-02 0. -1.
       25    2    1    2    0    0 -0.86423547828E+02 -0.12152921700E+03  0.70438496579E+03  0.73077108655E+03  0.12501928131E+03 0.  0.
       -6    2    1    2    0  503  0.86423547828E+02  0.12152921700E+03 -0.12854163324E+03  0.26022877554E+03  0.17016957407E+03 0.  0.
      -24    2    4    4    0    0 -0.94054215481E+01  0.98699808372E+02 -0.58053631093E+02  0.13900575085E+03  0.78244875610E+02 0.  0.
       15    1    5    5    0    0 -0.33715301351E+02  0.42334974134E+02  0.53166355252E+00  0.54151749511E+02  0.17769999504E+01 0. -1.
      -16    1    5    5    0    0  0.24309879803E+02  0.56364834238E+02 -0.58585294645E+02  0.84854001340E+02  0.00000000000E+00 0.  1.
       -5    1    4    4    0  503  0.95828969376E+02  0.22829408628E+02 -0.70488002147E+02  0.12122302469E+03  0.46999998093E+01 0.  1.
        5    1    3    3  502    0 -0.58882872806E+02 -0.80074626616E+01  0.40510131739E+03  0.40946364859E+03  0.46999998093E+01 0. -1.
       -5    1    3    3    0  502 -0.27540675021E+02 -0.11352175434E+03  0.29928364840E+03  0.32130743796E+03  0.46999998093E+01 0. -1.
</event>
<event>
10   0  0.1583500E-03  0.1876101E+03  0.7818609E-02  0.1170704E+00
       21   -1    0    0  501  503  0.00000000000E+00  0.00000000000E+00  0.56992549068E+02  0.56992549068E+02  0.00000000000E+00 0.  1.
        2   -1    0    0  503    0  0.00000000000E+00  0.00000000000E+00 -0.49641743419E+03  0.49641743420E+03  0.25500000920E-02 0.  1.
       25    2    1    2    0    0 -0.63743081747E+02 -0.49407989855E+02 -0.19008807450E+03  0.24137412563E+03  0.12499464999E+03 0.  0.
        6    2    1    2  501    0  0.63743081747E+02  0.49407989855E+02 -0.24933681062E+03  0.31203585763E+03  0.16939067679E+03 0.  0.
       24    2    4    4    0    0 -0.21515650384E+02  0.50146384554E+02 -0.11754161856E+03  0.15499554663E+03  0.85029431875E+02 0.  0.
      -13    1    5    5    0    0 -0.27548902252E+02 -0.17689522547E+02 -0.42681809763E+02  0.53792278925E+02  0.10565999895E+00 0.  1.
       14    1    5    5    0    0  0.60332518682E+01  0.67835907101E+02 -0.74859808799E+02  0.10120326770E+03  0.00000000000E+00 0. -1.
        5    1    4    4  501    0  0.85258732131E+02 -0.73839469916E+00 -0.13179519206E+03  0.15704031100E+03  0.46999998093E+01 0. -1.
        5    1    3    3  502    0 -0.95243654903E+02 -0.50884382336E+02 -0.10576527106E+03  0.15122485485E+03  0.46999998093E+01 0. -1.
       -5    1    3    3    0  502  0.31500573155E+02  0.14763924811E+01 -0.84322803445E+02  0.90149270785E+02  0.46999998093E+01 0. -1.
</event>
<event>
10   0  0.1583500E-03  0.1915303E+03  0.7818609E-02  0.1167391E+00
       21   -1    0    0  501  503  0.00000000000E+00  0.00000000000E+00  0.17930495106E+03  0.17930495106E+03  0.00000000000E+00 0.  1.
        2   -1    0    0  503    0  0.00000000000E+00  0.00000000000E+00 -0.16609556824E+03  0.16609556826E+03  0.25500000920E-02 0.  1.
       25    2    1    2    0    0  0.31389836596E+02  0.78350974641E+02 -0.15925417209E+02  0.15166693414E+03  0.12500017172E+03 0.  0.
        6    2    1    2  501    0 -0.31389836596E+02 -0.78350974641E+02  0.29134800030E+02  0.19373358518E+03  0.17192925401E+03 0.  0.
       24    2    4    4    0    0 -0.46025551486E+01 -0.10735378490E+03  0.56328096597E+02  0.14556422950E+03  0.80436756521E+02 0.  0.
      -15    1    5    5    0    0 -0.26471897104E+00 -0.29941578737E+02  0.60910151879E+02  0.67895305760E+02  0.17769999504E+01 0.  1.
       16    1    5    5    0    0 -0.43378361775E+01 -0.77412206158E+02 -0.45820552821E+01  0.77668923744E+02  0.00000000000E+00 0. -1.
        5    1    4    4  501    0 -0.26787281447E+02  0.29002810254E+02 -0.27193296567E+02  0.48169355677E+02  0.46999998093E+01 0. -1.
        5    1    3    3  502    0 -0.17858677414E+02 -0.25493247555E+02  0.11328984421E+02  0.33455551350E+02  0.46999998093E+01 0.  1.
       -5    1    3    3    0  502  0.49248514009E+02  0.10384422220E+03 -0.27254401630E+02  0.11821138279E+03  0.46999998093E+01 0.  1.
</event>
<event>
10   0  0.1583500E-03  0.1752446E+03  0.7818609E-02  0.1187460E+00
       21   -1    0    0  501  503  0.00000000000E+00  0.00000000000E+00  0.39179360293E+02  0.39179360293E+02  0.00000000000E+00 0. -1.
        2   -1    0    0  503    0  0.00000000000E+00  0.00000000000E+00 -0.62906700392E+03  0.62906700393E+03  0.25500000920E-02 0. -1.
       25    2    1    2    0    0  0.58574340859E+01  0.19259369495E+01 -0.15395673483E+03  0.19840975570E+03  0.12500294473E+03 0.  0.
        6    2    1    2  501    0 -0.58574340859E+01 -0.19259369495E+01 -0.43593090880E+03  0.46983660852E+03  0.17513612618E+03 0.  0.
       24    2    4    4    0    0 -0.26559194306E+02 -0.60468302507E+02 -0.34494938993E+03  0.35958463250E+03  0.77131186366E+02 0.  0.
      -13    1    5    5    0    0  0.56883889845E+01  0.95711825943E+01 -0.74685786129E+01  0.13407316511E+02  0.10565999895E+00 0.  1.
       14    1    5    5    0    0 -0.32247583290E+02 -0.70039485102E+02 -0.33748081132E+03  0.34617731599E+03  0.00000000000E+00 0. -1.
        5    1    4    4  501    0  0.20701760220E+02  0.58542365558E+02 -0.90981518865E+02  0.11025197601E+03  0.46999998093E+01 0. -1.
        5    1    3    3  502    0  0.60683179020E+02  0.19708573442E+02 -0.10342929011E+03  0.12161654548E+03  0.46999998093E+01 0. -1.
       -5    1    3    3    0  502 -0.54825744935E+02 -0.17782636492E+02 -0.50527444723E+02  0.76793210225E+02  0.46999998093E+01 0. -1.
</event>
<event>
10   0  0.1583500E-03  0.2440001E+03  0.7818609E-02  0.1122582E+00
        2   -1    0    0  503    0  0.00000000000E+00  0.00000000000E+00  0.13222824655E+04  0.13222824655E+04  0.00000000000E+00 0.  1.
       21   -1    0    0  501  503  0.00000000000E+00  0.00000000000E+00 -0.71379153616E+02  0.71379153616E+02  0.25500000920E-02 0. -1.
       25    2    1    2    0    0  0.16469230771E+03  0.51330222909E+02  0.10671572451E+04  0.10882132830E+04  0.12500086164E+03 0.  0.
        6    2    1    2  501    0 -0.16469230771E+03 -0.51330222909E+02  0.18374606673E+03  0.30544833612E+03  0.17256222354E+03 0.  0.
       24    2    4    4    0    0 -0.74518258901E+02 -0.74397766960E+02  0.54814642003E+02  0.14636070948E+03  0.85608490608E+02 0.  0.
      -13    1    5    5    0    0 -0.19638331855E+02  0.16184685158E+02 -0.31223629045E+01  0.25639197060E+02  0.10565999895E+00 0.  1.
       14    1    5    5    0    0 -0.54879927046E+02 -0.90582452118E+02  0.57937004907E+02  0.12072151242E+03  0.00000000000E+00 0. -1.
        5    1    4    4  501    0 -0.90174048812E+02  0.23067544051E+02  0.12893142473E+03  0.15908762664E+03  0.46999998093E+01 0. -1.
        5    1    3    3  502    0  0.15968071855E+03  0.57398476835E+02  0.67728151054E+03  0.69822979851E+03  0.46999998093E+01 0. -1.
       -5    1    3    3    0  502  0.50115891658E+01 -0.60682539263E+01  0.38987573457E+03  0.38998348444E+03  0.46999998093E+01 0. -1.
</event>
<event>
10   0  0.1583500E-03  0.1926432E+03  0.7818609E-02  0.1166755E+00
       21   -1    0    0  501  503  0.00000000000E+00  0.00000000000E+00  0.98329377246E+02  0.98329377246E+02  0.00000000000E+00 0.  1.
        2   -1    0    0  503    0  0.00000000000E+00  0.00000000000E+00 -0.33876552592E+03  0.33876552593E+03  0.25500000920E-02 0.  1.
       25    2    1    2    0    0  0.58360676781E+01 -0.83458424204E+02 -0.18131764435E+03  0.23558458985E+03  0.12499857026E+03 0.  0.
        6    2    1    2  501    0 -0.58360676781E+01  0.83458424204E+02 -0.59118504319E+02  0.20151031332E+03  0.17352821259E+03 0.  0.
       24    2    4    4    0    0 -0.66247121964E+02  0.56238050247E+02 -0.77159821359E+01  0.11751773315E+03  0.78736787846E+02 0.  0.
      -11    1    5    5    0    0 -0.29670612350E+02  0.54822317443E+02  0.26197997642E+02  0.67617799489E+02  0.51099999109E-03 0.  1.
       12    1    5    5    0    0 -0.36576509614E+02  0.14157328038E+01 -0.33913979778E+02  0.49899933660E+02  0.00000000000E+00 0. -1.
        5    1    4    4  501    0  0.60411054286E+02  0.27220373957E+02 -0.51402522183E+02  0.83992580168E+02  0.46999998093E+01 0. -1.
        5    1    3    3  502    0 -0.53797570977E+02 -0.11172103908E+02 -0.83277652223E+02  0.99881188954E+02  0.46999998093E+01 0. -1.
       -5    1    3    3    0  502  0.59633638655E+02 -0.72286320296E+02 -0.98039992129E+02  0.13570340090E+03  0.46999998093E+01 0. -1.
</event>
<event>
10   0  0.1583500E-03  0.4143748E+03  0.7818609E-02  0.1040334E+00
       -2   -1    0    0    0  501  0.00000000000E+00  0.00000000000E+00  0.11614316099E+03  0.11614316102E+03  0.00000000000E+00 0. -1.
       21   -1    0    0  501  503  0.00000000000E+00  0.00000000000E+00 -0.14507152491E+04  0.14507152491E+04  0.25500000920E-02 0.  1.
       25    2    1    2    0    0 -0.25616989072E+03  0.27717538168E+03 -0.53814784459E+03  0.66908445404E+03  0.12498679480E+03 0.  0.
       -6    2    1    2    0  503  0.25616989072E+03 -0.27717538168E+03 -0.79642424347E+03  0.89777395604E+03  0.17104764083E+03 0.  0.
      -24    2    4    4    0    0  0.12289079714E+03 -0.20828361158E+03 -0.40510228633E+03  0.47865063658E+03  0.80711576851E+02 0.  0.
       11    1    5    5    0    0  0.61646979246E+01 -0.84456129953E+02 -0.12846380287E+03  0.15386289363E+03  0.51099999109E-03 0. -1.
      -12    1    5    5    0    0  0.11672609921E+03 -0.12382748162E+03 -0.27663848346E+03  0.32478774296E+03  0.00000000000E+00 0.  1.
       -5    1    4    4    0  503  0.13327909358E+03 -0.68891770100E+02 -0.39132195714E+03  0.41912331946E+03  0.46999998093E+01 0.  1.
        5    1    3    3  502    0  0.34087534146E+01 -0.20465551773E+01  0.32071904328E+01  0.69414736630E+01  0.46999998093E+01 0. -1.
       -5    1    3    3    0  502 -0.25957864414E+03  0.27922193685E+03 -0.54135503503E+03  0.66214298037E+03  0.46999998093E+01 0. -1.
</event>
<event>
10   0  0.1583500E-03  0.1823807E+03  0.7818609E-02  0.1177528E+00
       21   -1    0    0  501  503  0.00000000000E+00  0.00000000000E+00  0.11345393955E+03  0.11345393955E+03  0.00000000000E+00 0.  1.
        2   -1    0    0  503    0  0.00000000000E+00  0.00000000000E+00 -0.11575092982E+04  0.11575092982E+04  0.25500000920E-02 0.  1.
       25    2    1    2    0    0  0.59894359426E+02  0.42603464842E+01 -0.10767772707E+04  0.10856703332E+04  0.12500118679E+03 0.  0.
        6    2    1    2  501    0 -0.59894359426E+02 -0.42603464842E+01  0.32721912121E+02  0.18529290455E+03  0.17221281050E+03 0.  0.
       24    2    4    4    0    0 -0.87077925310E+02  0.44694092569E+02  0.28052537452E+02  0.12890694517E+03  0.79056490359E+02 0.  0.
      -13    1    5    5    0    0 -0.81393419791E+02  0.87837110888E+01  0.39353412768E+02  0.90833609563E+02  0.10565999895E+00 0.  1.
       14    1    5    5    0    0 -0.56845055192E+01  0.35910381480E+02 -0.11300875317E+02  0.38073335603E+02  0.00000000000E+00 0. -1.
        5    1    4    4  501    0  0.27183565884E+02 -0.48954439053E+02  0.46693746692E+01  0.56385959380E+02  0.46999998093E+01 0. -1.
        5    1    3    3  502    0  0.80937861701E+02 -0.39101444588E+02 -0.72984308021E+03  0.73537260770E+03  0.46999998093E+01 0. -1.
       -5    1    3    3    0  502 -0.21043502275E+02  0.43361791072E+02 -0.34693419053E+03  0.35029772547E+03  0.46999998093E+01 0. -1.
</event>
<event>
10   0  0.1583500E-03  0.2164676E+03  0.7818609E-02  0.1144082E+00
        2   -1    0    0  503    0  0.00000000000E+00  0.00000000000E+00  0.61986701569E+03  0.61986701570E+03  0.00000000000E+00 0. -1.
       21   -1    0    0  501  503  0.00000000000E+00  0.00000000000E+00 -0.10009277967E+03  0.10009277967E+03  0.25500000920E-02 0. -1.
       25    2    1    2    0    0 -0.10090958283E+03 -0.82283452395E+02  0.46186138888E+03  0.49587917808E+03  0.12500762486E+03 0.  0.
        6    2    1    2  501    0  0.10090958283E+03  0.82283452395E+02  0.57912847142E+02  0.22408061729E+03  0.17293037540E+03 0.  0.
       24    2    4    4    0    0  0.50232957359E+02  0.11623836870E+03  0.49289421247E+02  0.16229461417E+03  0.88743373712E+02 0.  0.
      -13    1    5    5    0    0  0.14681213613E+02  0.96465903300E+02  0.66543114713E+02  0.11810675600E+03  0.10565999895E+00 0.  1.
       14    1    5    5    0    0  0.35551743745E+02  0.19772465397E+02 -0.17253693466E+02  0.44187858167E+02  0.00000000000E+00 0. -1.
        5    1    4    4  501    0  0.50676625466E+02 -0.33954916302E+02  0.86234258949E+01  0.61786003125E+02  0.46999998093E+01 0. -1.
        5    1    3    3  502    0 -0.41534048882E+02 -0.79935627142E+02  0.39971696634E+03  0.40976886763E+03  0.46999998093E+01 0.  1.
       -5    1    3    3    0  502 -0.59375533943E+02 -0.23478252529E+01  0.62144422540E+02  0.86110310448E+02  0.46999998093E+01 0.  1.
</event>
<event>
10   0  0.1583500E-03  0.2568122E+03  0.7818609E-02  0.1113719E+00
        2   -1    0    0  503    0  0.00000000000E+00  0.00000000000E+00  0.74038638928E+03  0.74038638929E+03  0.00000000000E+00 0. -1.
       21   -1    0    0  501  503  0.00000000000E+00  0.00000000000E+00 -0.10957098580E+03  0.10957098580E+03  0.25500000920E-02 0. -1.
       25    2    1    2    0    0 -0.19068293654E+03  0.10319302137E+02  0.52451121288E+03  0.57201298541E+03  0.12498148964E+03 0.  0.
        6    2    1    2  501    0  0.19068293654E+03 -0.10319302137E+02  0.10630419060E+03  0.27794438968E+03  0.17171497469E+03 0.  0.
       24    2    4    4    0    0  0.59186167898E+02  0.47328686573E+02  0.61865052781E+02  0.12757279085E+03  0.81881164910E+02 0.  0.
      -13    1    5    5    0    0  0.18536835592E+02  0.23584996078E+02 -0.17914175471E+02  0.34939879230E+02  0.10565999895E+00 0.  1.
       14    1    5    5    0    0  0.40649332307E+02  0.23743690495E+02  0.79779228251E+02  0.92632911623E+02  0.00000000000E+00 0. -1.
        5    1    4    4  501    0  0.13149676864E+03 -0.57647988710E+02  0.44439137819E+02  0.15037159883E+03  0.46999998093E+01 0. -1.
        5    1    3    3  502    0 -0.72081292554E+02 -0.56043923928E+02  0.18758917413E+03  0.20868258766E+03  0.46999998093E+01 0. -1.
       -5    1    3    3    0  502 -0.11860164399E+03  0.66363226065E+02  0.33692203875E+03  0.36333039774E+03  0.46999998093E+01 0. -1.
</event>
<event>
10   0  0.1583500E-03  0.1905779E+03  0.7818609E-02  0.1168469E+00
        2   -1    0    0  503    0  0.00000000000E+00  0.00000000000E+00  0.29213650108E+03  0.29213650109E+03  0.00000000000E+00 0.  1.
       21   -1    0    0  501  503  0.00000000000E+00  0.00000000000E+00 -0.17478016614E+03  0.17478016614E+03  0.25500000920E-02 0.  1.
       25    2    1    2    0    0 -0.72288616306E+02  0.38192176931E+02  0.20784607525E+03  0.25594669036E+03  0.12499772352E+03 0.  0.
        6    2    1    2  501    0  0.72288616306E+02 -0.38192176931E+02 -0.90489740316E+02  0.21096997687E+03  0.17215008455E+03 0.  0.
       24    2    4    4    0    0  0.78324123834E+02 -0.86547102118E+02 -0.66661564214E+02  0.15652277202E+03  0.80190677507E+02 0.  0.
      -11    1    5    5    0    0 -0.13417424545E+02 -0.19676396277E+02 -0.27622407454E+02  0.36471704726E+02  0.51099999109E-03 0.  1.
       12    1    5    5    0    0  0.91741548378E+02 -0.66870705841E+02 -0.39039156760E+02  0.12005106730E+03  0.00000000000E+00 0. -1.
        5    1    4    4  501    0 -0.60355075277E+01  0.48354925187E+02 -0.23828176102E+02  0.54447204846E+02  0.46999998093E+01 0. -1.
        5    1    3    3  502    0  0.28606106062E+02  0.19535647844E+02  0.16238203098E+02  0.38545039613E+02  0.46999998093E+01 0.  1.
       -5    1    3    3    0  502 -0.10089472237E+03  0.18656529087E+02  0.19160787215E+03  0.21740165075E+03  0.46999998093E+01 0.  1.
</event>
<event>
10   0  0.1583500E-03  0.3563895E+03  0.7818609E-02  0.1062154E+00
        4   -1    0    0  503    0  0.00000000000E+00  0.00000000000E+00  0.85490522203E+03  0.85490616535E+03  0.00000000000E+00 0.  1.
       21   -1    0    0  501  503  0.00000000000E+00  0.00000000000E+00 -0.20294631335E+03  0.20294631335E+03  0.12699999809E+01 0. -1.
       25    2    1    2    0    0  0.57131139924E+02 -0.30638291712E+03  0.61350896509E+03  0.69939483174E+03  0.12500168548E+03 0.  0.
        6    2    1    2  501    0 -0.57131139924E+02  0.30638291712E+03  0.38449943595E+02  0.35845764695E+03  0.17285551030E+03 0.  0.
       24    2    4    4    0    0 -0.76023876442E+02  0.29245593291E+03  0.68121777262E+02  0.32033410969E+03  0.81628811139E+02 0.  0.
      -11    1    5    5    0    0 -0.83765933643E+02  0.19327771294E+03  0.66304017992E+02  0.22083756193E+03  0.51099999109E-03 0.  1.
       12    1    5    5    0    0  0.77420572012E+01  0.99178219968E+02  0.18177592692E+01  0.99496547752E+02  0.00000000000E+00 0. -1.
        5    1    4    4  501    0  0.18892736517E+02  0.13926984213E+02 -0.29671833666E+02  0.38123537266E+02  0.46999998093E+01 0. -1.
        5    1    3    3  502    0  0.25555728871E+02 -0.38705392371E+01  0.22059334407E+02  0.34304235669E+02  0.46999998093E+01 0.  1.
       -5    1    3    3    0  502  0.31575411053E+02 -0.30251237788E+03  0.59144963068E+03  0.66509059607E+03  0.46999998093E+01 0.  1.
</event>
<event>
10   0  0.1583500E-03  0.1786605E+03  0.7818609E-02  0.1181428E+00
       21   -1    0    0  501  503  0.00000000000E+00  0.00000000000E+00  0.10825916961E+03  0.10825916961E+03  0.00000000000E+00 0.  1.
       -2   -1    0    0    0  501  0.00000000000E+00  0.00000000000E+00 -0.55800186772E+03  0.55800186773E+03  0.25500000920E-02 0.  1.
       25    2    1    2    0    0  0.26726895065E+02 -0.43794196374E+02 -0.46757913611E+03  0.48671242918E+03  0.12500592643E+03 0.  0.
       -6    2    1    2    0  503 -0.26726895065E+02  0.43794196374E+02  0.17836437998E+02  0.17954860816E+03  0.17113534298E+03 0.  0.
      -24    2    4    4    0    0  0.51262070710E+01  0.83647714201E+02 -0.15631771007E+02  0.11835110812E+03  0.82093936673E+02 0.  0.
       15    1    5    5    0    0  0.43145301514E+01  0.36243656970E+02 -0.48452770701E+02  0.60688108872E+02  0.17769999504E+01 0. -1.
      -16    1    5    5    0    0  0.81167691954E+00  0.47404057230E+02  0.32820999695E+02  0.57662999248E+02  0.00000000000E+00 0.  1.
       -5    1    4    4    0  503 -0.31853102136E+02 -0.39853517827E+02  0.33468209005E+02  0.61197500039E+02  0.46999998093E+01 0.  1.
        5    1    3    3  502    0  0.58665147543E+02 -0.23917825843E+02 -0.10920560633E+03  0.12633929072E+03  0.46999998093E+01 0. -1.
       -5    1    3    3    0  502 -0.31938252478E+02 -0.19876370531E+02 -0.35837352978E+03  0.36037313846E+03  0.46999998093E+01 0. -1.
</event>
<event>
10   0  0.1583500E-03  0.2009836E+03  0.7818609E-02  0.1157345E+00
       21   -1    0    0  501  503  0.00000000000E+00  0.00000000000E+00  0.39457878263E+02  0.39457878263E+02  0.00000000000E+00 0.  1.
        2   -1    0    0  503    0  0.00000000000E+00  0.00000000000E+00 -0.11168912096E+04  0.11168912096E+04  0.25500000920E-02 0. -1.
       25    2    1    2    0    0 -0.67352386095E+02 -0.83586244121E+02 -0.78109502129E+03  0.79828374197E+03  0.12499798517E+03 0.  0.
        6    2    1    2  501    0  0.67352386095E+02  0.83586244121E+02 -0.29633831009E+03  0.35806534593E+03  0.16991584333E+03 0.  0.
       24    2    4    4    0    0  0.77381227936E+02  0.94502988571E+02 -0.14435384666E+03  0.20528733672E+03  0.79913630161E+02 0.  0.
      -15    1    5    5    0    0  0.40274267562E+02  0.15272113865E+02 -0.96208502318E+02  0.10542527086E+03  0.17769999504E+01 0.  1.
       16    1    5    5    0    0  0.37106960374E+02  0.79230874706E+02 -0.48145344343E+02  0.99862065854E+02  0.00000000000E+00 0. -1.
        5    1    4    4  501    0 -0.10028841841E+02 -0.10916744450E+02 -0.15198446343E+03  0.15277800922E+03  0.46999998093E+01 0. -1.
        5    1    3    3  502    0 -0.18259482179E+02 -0.88874096578E+02 -0.67593530982E+03  0.68201367053E+03  0.46999998093E+01 0.  1.
       -5    1    3    3    0  502 -0.49092903916E+02  0.52878524567E+01 -0.10515971147E+03  0.11627007144E+03  0.46999998093E+01 0.  1.
</event>
<event>
10   0  0.1583500E-03  0.2376024E+03  0.7818609E-02  0.1128945E+00
        2   -1    0    0  503    0  0.00000000000E+00  0.00000000000E+00  0.82091207602E+03  0.82091207602E+03  0.00000000000E+00 0.  1.
       21   -1    0    0  501  503  0.00000000000E+00  0.00000000000E+00 -0.57548434714E+02  0.57548434714E+02  0.25500000920E-02 0.  1.
       25    2    1    2    0    0 -0.85575023119E+02  0.12607710032E+03  0.34907284663E+03  0.40087095667E+03  0.12500860705E+03 0.  0.
        6    2    1    2  501    0  0.85575023119E+02 -0.12607710032E+03  0.41429079467E+03  0.47758955406E+03  0.18230852914E+03 0.  0.
       24    2    4    4    0    0  0.81577863919E+02 -0.16000885850E+03  0.38140190292E+03  0.42993338245E+03  0.84365390510E+02 0.  0.
      -11    1    5    5    0    0 -0.97059366695E+01 -0.26233421634E+02  0.11339517677E+03  0.11679410830E+03  0.51099999109E-03 0.  1.
       12    1    5    5    0    0  0.91283800588E+02 -0.13377543686E+03  0.26800672615E+03  0.31313927415E+03  0.00000000000E+00 0. -1.
        5    1    4    4  501    0  0.39971592008E+01  0.33931758171E+02  0.32888891745E+02  0.47656171611E+02  0.46999998093E+01 0. -1.
        5    1    3    3  502    0 -0.26736392797E+02 -0.19805699915E+02  0.10689809354E+03  0.11205531156E+03  0.46999998093E+01 0. -1.
       -5    1    3    3    0  502 -0.58838630322E+02  0.14588280024E+03  0.24217475310E+03  0.28881564511E+03  0.46999998093E+01 0. -1.
</event>
<event>
10   0  0.1583500E-03  0.2168450E+03  0.7818609E-02  0.1143553E+00
       21   -1    0    0  501  503  0.00000000000E+00  0.00000000000E+00  0.27194675809E+02  0.27194675809E+02  0.00000000000E+00 0.  1.
        2   -1    0    0  503    0  0.00000000000E+00  0.00000000000E+00 -0.16607994034E+04  0.16607994034E+04  0.25500000920E-02 0. -1.
       25    2    1    2    0    0  0.12579787272E+03  0.40232269029E+02 -0.10452553161E+04  0.10609559633E+04  0.12500056011E+03 0.  0.
        6    2    1    2  501    0 -0.12579787272E+03 -0.40232269029E+02 -0.58834941147E+03  0.62703811586E+03  0.17198264016E+03 0.  0.
       24    2    4    4    0    0 -0.13090682357E+03  0.16365689187E+02 -0.48660107997E+03  0.51040088675E+03  0.79523719303E+02 0.  0.
      -13    1    5    5    0    0 -0.80312477291E+02  0.29719732887E+02 -0.17958677060E+03  0.19895923167E+03  0.10565999895E+00 0.  1.
       14    1    5    5    0    0 -0.50594346283E+02 -0.13354043700E+02 -0.30701430937E+03  0.31144165508E+03  0.00000000000E+00 0. -1.
        5    1    4    4  501    0  0.51089508497E+01 -0.56597958216E+02 -0.10174833150E+03  0.11663722911E+03  0.46999998093E+01 0. -1.
        5    1    3    3  502    0  0.48998589397E+02 -0.44882354104E+02 -0.42250433510E+03  0.42772338100E+03  0.46999998093E+01 0.  1.
       -5    1    3    3    0  502  0.76799283328E+02  0.85114623133E+02 -0.62275098101E+03  0.63323258234E+03  0.46999998093E+01 0.  1.
</event>
<event>
10   0  0.1583500E-03  0.2272670E+03  0.7818609E-02  0.1135062E+00
       21   -1    0    0  501  503  0.00000000000E+00  0.00000000000E+00  0.10275216207E+03  0.10275216207E+03  0.00000000000E+00 0. -1.
        2   -1    0    0  503    0  0.00000000000E+00  0.00000000000E+00 -0.28427541167E+04  0.28427541167E+04  0.25500000920E-02 0.  1.
       25    2    1    2    0    0 -0.13648841483E+03 -0.57869052035E+02 -0.27092354175E+04  0.27161662484E+04  0.12499850957E+03 0.  0.
        6    2    1    2  501    0  0.13648841483E+03  0.57869052035E+02 -0.30766537214E+02  0.22934003037E+03  0.17225665489E+03 0.  0.
       24    2    4    4    0    0 -0.64844496006E+01  0.20203993639E+02 -0.21669652992E+02  0.81134970107E+02  0.75253306026E+02 0.  0.
      -13    1    5    5    0    0 -0.25461489565E+02  0.28727690919E+02 -0.38506336660E+02  0.54372022249E+02  0.10565999895E+00 0.  1.
       14    1    5    5    0    0  0.18977039964E+02 -0.85236972805E+01  0.16836683668E+02  0.26762947858E+02  0.00000000000E+00 0. -1.
        5    1    4    4  501    0  0.14297286443E+03  0.37665058396E+02 -0.90968842213E+01  0.14820506026E+03  0.46999998093E+01 0. -1.
        5    1    3    3  502    0 -0.36671138423E+02 -0.27739418777E+02 -0.18553692590E+04  0.18559448874E+04  0.46999998093E+01 0.  1.
       -5    1    3    3    0  502 -0.99817276405E+02 -0.30129633259E+02 -0.85386615843E+03  0.86022136103E+03  0.46999998093E+01 0.  1.
</event>
<event>
10   0  0.1583500E-03  0.2373227E+03  0.7818609E-02  0.1127458E+00
        2   -1    0    0  503    0  0.00000000000E+00  0.00000000000E+00  0.18637940469E+04  0.18637940469E+04  0.00000000000E+00 0. -1.
       21   -1    0    0  501  503  0.00000000000E+00  0.00000000000E+00 -0.26884551771E+02  0.26884551771E+02  0.25500000920E-02 0.  1.
       25    2    1    2    0    0  0.10830404734E+03  0.12140977028E+03  0.71000356681E+03  0.73905408097E+03  0.12500308287E+03 0.  0.
        6    2    1    2  501    0 -0.10830404734E+03 -0.12140977028E+03  0.11269059283E+04  0.11516245177E+04  0.17277719613E+03 0.  0.
       24    2    4    4    0    0 -0.11391921390E+03 -0.49360851572E+02  0.93784582542E+03  0.94916862303E+03  0.77150513404E+02 0.  0.
      -13    1    5    5    0    0 -0.31010182359E+02 -0.53919783737E+02  0.34942584264E+03  0.35491887123E+03  0.10565999895E+00 0.  1.
       14    1    5    5    0    0 -0.82909031545E+02  0.45589321645E+01  0.58841998278E+03  0.59424975180E+03  0.00000000000E+00 0. -1.
        5    1    4    4  501    0  0.56151665652E+01 -0.72048918706E+02  0.18906010291E+03  0.20245589468E+03  0.46999998093E+01 0. -1.
        5    1    3    3  502    0  0.81697412771E+02  0.15428197860E+01  0.30817583964E+03  0.31885935094E+03  0.46999998093E+01 0. -1.
       -5    1    3    3    0  502  0.26606634569E+02  0.11986695049E+03  0.40182772717E+03  0.42019473002E+03  0.46999998093E+01 0. -1.
</event>
<event>
10   0  0.1583500E-03  0.1751705E+03  0.7818609E-02  0.1187204E+00
        2   -1    0    0  503    0  0.00000000000E+00  0.00000000000E+00  0.30880245137E+03  0.30880245138E+03  0.00000000000E+00 0.  1.
       21   -1    0    0  501  503  0.00000000000E+00  0.00000000000E+00 -0.11310041662E+03  0.11310041662E+03  0.25500000920E-02 0.  1.
       25    2    1    2    0    0  0.12175970067E+02  0.10512813710E+02  0.21130870748E+03  0.24603854514E+03  0.12499928935E+03 0.  0.
        6    2    1    2  501    0 -0.12175970067E+02 -0.10512813710E+02 -0.15606672731E+02  0.17586432286E+03  0.17443026780E+03 0.  0.
       24    2    4    4    0    0  0.12366811340E+02 -0.61142594016E+02  0.24472317787E+02  0.10662460701E+03  0.82937070454E+02 0.  0.
      -15    1    5    5    0    0  0.12371336850E+02 -0.25944986973E+02  0.53659968650E+02  0.60899444076E+02  0.17769999504E+01 0.  1.
       16    1    5    5    0    0 -0.45255102032E-02 -0.35197607043E+02 -0.29187650863E+02  0.45725162929E+02  0.00000000000E+00 0. -1.
        5    1    4    4  501    0 -0.24542781407E+02  0.50629780305E+02 -0.40078990517E+02  0.69239715857E+02  0.46999998093E+01 0. -1.
        5    1    3    3  502    0 -0.53814092166E+02  0.21271797906E+02  0.11320896250E+03  0.12722737556E+03  0.46999998093E+01 0.  1.
       -5    1    3    3    0  502  0.65990062233E+02 -0.10758984196E+02  0.98099744980E+02  0.11881116958E+03  0.46999998093E+01 0.  1.
</event>
<event>
10   0  0.1583500E-03  0.2129883E+03  0.7818609E-02  0.1146855E+00
        2   -1    0    0  503    0  0.00000000000E+00  0.00000000000E+00  0.15374915410E+04  0.15374915410E+04  0.00000000000E+00 0. -1.
       21   -1    0    0  501  503  0.00000000000E+00  0.00000000000E+00 -0.24866499749E+02  0.24866499749E+02  0.25500000920E-02 0.  1.
       25    2    1    2    0    0  0.12360858258E+03 -0.23385396350E+02  0.73492944873E+03  0.75602407428E+03  0.12500059133E+03 0.  0.
        6    2    1    2  501    0 -0.12360858258E+03  0.23385396350E+02  0.77769559250E+03  0.80633396645E+03  0.17186643769E+03 0.  0.
       24    2    4    4    0    0 -0.11507819279E+03  0.76125841396E+02  0.58870917619E+03  0.60988479327E+03  0.79641903234E+02 0.  0.
      -13    1    5    5    0    0 -0.31699734898E+02 -0.15039801408E+02  0.10815559385E+03  0.11370449624E+03  0.10565999895E+00 0.  1.
       14    1    5    5    0    0 -0.83378457889E+02  0.91165642804E+02  0.48055358234E+03  0.49618029704E+03  0.00000000000E+00 0. -1.
        5    1    4    4  501    0 -0.85303897940E+01 -0.52740445046E+02  0.18898641631E+03  0.19644917318E+03  0.46999998093E+01 0. -1.
        5    1    3    3  502    0  0.22102749497E+02 -0.59103191503E+02  0.37582127831E+03  0.38111080018E+03  0.46999998093E+01 0. -1.
       -5    1    3    3    0  502  0.10150583308E+03  0.35717795153E+02  0.35910817041E+03  0.37491327410E+03  0.46999998093E+01 0. -1.
</event>
<event>
10   0  0.1583500E-03  0.1905793E+03  0.7818609E-02  0.1167985E+00
        2   -1    0    0  503    0  0.00000000000E+00  0.00000000000E+00  0.52839101133E+03  0.52839101134E+03  0.00000000000E+00 0. -1.
       21   -1    0    0  501  503  0.00000000000E+00  0.00000000000E+00 -0.15430511752E+03  0.15430511752E+03  0.25500000920E-02 0.  1.
       25    2    1    2    0    0  0.92982761514E+01 -0.84253592674E+02  0.45218198903E+03  0.47673626049E+03  0.12499514007E+03 0.  0.
        6    2    1    2  501    0 -0.92982761514E+01  0.84253592674E+02 -0.78096095228E+02  0.20595986837E+03  0.17069077735E+03 0.  0.
       24    2    4    4    0    0  0.89870141820E+01  0.84243253158E+02  0.94223802913E+01  0.11642816725E+03  0.79303497735E+02 0.  0.
      -13    1    5    5    0    0 -0.18155221587E+02  0.12296425592E+02 -0.24064704280E+02  0.32556647698E+02  0.10565999895E+00 0.  1.
       14    1    5    5    0    0  0.27142235769E+02  0.71946827567E+02  0.33487084571E+02  0.83871519556E+02  0.00000000000E+00 0. -1.
        5    1    4    4  501    0 -0.18285290333E+02  0.10339515298E-01 -0.87518475519E+02  0.89531701117E+02  0.46999998093E+01 0. -1.
        5    1    3    3  502    0 -0.35127425713E+02 -0.20086128487E+02  0.39604046423E+02  0.56815130785E+02  0.46999998093E+01 0. -1.
       -5    1    3    3    0  502  0.44425701864E+02 -0.64167464187E+02  0.41257794261E+03  0.41992112971E+03  0.46999998093E+01 0. -1.
</event>
<event>
10   0  0.1583500E-03  0.1900571E+03  0.7818609E-02  0.1168966E+00
       21   -1    0    0  501  503  0.00000000000E+00  0.00000000000E+00  0.13236975184E+03  0.13236975184E+03  0.00000000000E+00 0. -1.
        2   -1    0    0  503    0  0.00000000000E+00  0.00000000000E+00 -0.22200681210E+03  0.22200681212E+03  0.25500000920E-02 0. -1.
       25    2    1    2    0    0  0.73715308305E+02  0.33288683618E+02 -0.65985525195E+02  0.16285345941E+03  0.12500030628E+03 0.  0.
        6    2    1    2  501    0 -0.73715308305E+02 -0.33288683618E+02 -0.23651535071E+02  0.19152310455E+03  0.17198727083E+03 0.  0.
       24    2    4    4    0    0 -0.54640825557E+02 -0.82425898870E+02 -0.42455034028E+02  0.13536294620E+03  0.82103889473E+02 0.  0.
      -15    1    5    5    0    0  0.13168918075E+02 -0.20419861179E+02  0.13428087035E+02  0.27818382125E+02  0.17769999504E+01 0.  1.
       16    1    5    5    0    0 -0.67809743632E+02 -0.62006037691E+02 -0.55883121062E+02  0.10754456407E+03  0.00000000000E+00 0. -1.
        5    1    4    4  501    0 -0.19074482748E+02  0.49137215251E+02  0.18803498957E+02  0.56160158351E+02  0.46999998093E+01 0. -1.
        5    1    3    3  502    0 -0.58706131506E+01  0.34203941452E+02 -0.74844760250E+02  0.82632934383E+02  0.46999998093E+01 0. -1.
       -5    1    3    3    0  502  0.79585921456E+02 -0.91525783309E+00  0.88592350552E+01  0.80220525022E+02  0.46999998093E+01 0. -1.
</event>
<event>
10   0  0.1583500E-03  0.2038218E+03  0.7818609E-02  0.1155528E+00
       21   -1    0    0  501  503  0.00000000000E+00  0.00000000000E+00  0.34597568748E+02  0.34597568748E+02  0.00000000000E+00 0.  1.
        2   -1    0    0  503    0  0.00000000000E+00  0.00000000000E+00 -0.22480963081E+04  0.22480963081E+04  0.25500000920E-02 0. -1.
       25    2    1    2    0    0  0.84919470912E+02 -0.65866513863E+02 -0.19100309812E+04  0.19171312960E+04  0.12499737056E+03 0.  0.
        6    2    1    2  501    0 -0.84919470912E+02  0.65866513863E+02 -0.30346775812E+03  0.36556258085E+03  0.17318662220E+03 0.  0.
       24    2    4    4    0    0 -0.49397962306E+02  0.10226075103E+03 -0.15501620778E+03  0.20857127259E+03  0.81083482871E+02 0.  0.
      -13    1    5    5    0    0 -0.36689659103E+02  0.44407493313E+02 -0.19734190519E+02  0.60890114032E+02  0.10565999895E+00 0.  1.
       14    1    5    5    0    0 -0.12708303203E+02  0.57853257715E+02 -0.13528201726E+03  0.14768115856E+03  0.00000000000E+00 0. -1.
        5    1    4    4  501    0 -0.35521508607E+02 -0.36394237164E+02 -0.14845155034E+03  0.15699130826E+03  0.46999998093E+01 0. -1.
        5    1    3    3  502    0  0.58071398574E+02 -0.95705850443E+02 -0.10104765262E+04  0.10166694631E+04  0.46999998093E+01 0. -1.
       -5    1    3    3    0  502  0.26848072338E+02  0.29839336580E+02 -0.89955445502E+03  0.90046183292E+03  0.46999998093E+01 0. -1.
</event>
<event>
10   0  0.1583500E-03  0.1729531E+03  0.7818609E-02  0.1188558E+00
        2   -1    0    0  503    0  0.00000000000E+00  0.00000000000E+00  0.10064560775E+04  0.10064560775E+04  0.00000000000E+00 0. -1.
       21   -1    0    0  501  503  0.00000000000E+00  0.00000000000E+00 -0.33688795969E+02  0.33688795969E+02  0.25500000920E-02 0. -1.
       25    2    1    2    0    0  0.81450574706E+01  0.21316511045E+02  0.73626743815E+03  0.74715180332E+03  0.12500136450E+03 0.  0.
        6    2    1    2  501    0 -0.81450574706E+01 -0.21316511045E+02  0.23649984339E+03  0.29299307015E+03  0.17144103252E+03 0.  0.
       24    2    4    4    0    0 -0.30033013834E+02 -0.65166297240E+02  0.12211562820E+03  0.16846305343E+03  0.91208253487E+02 0.  0.
      -11    1    5    5    0    0 -0.32377107575E+02  0.13727627850E+02  0.24165224174E+02  0.42669461222E+02  0.51099999109E-03 0.  1.
       12    1    5    5    0    0  0.23440937407E+01 -0.78893925090E+02  0.97950404025E+02  0.12579359221E+03  0.00000000000E+00 0. -1.
        5    1    4    4  501    0  0.21887956364E+02  0.43849786195E+02  0.11438421519E+03  0.12453001673E+03  0.46999998093E+01 0. -1.
        5    1    3    3  502    0 -0.29738929705E+02 -0.29920073360E+02  0.51768484742E+03  0.51942208846E+03  0.46999998093E+01 0. -1.
       -5    1    3    3    0  502  0.37883987176E+02  0.51236584405E+02  0.21858259073E+03  0.22772971486E+03  0.46999998093E+01 0. -1.
</event>
<event>
10   0  0.1583500E-03  0.2299826E+03  0.7818609E-02  0.1132795E+00
       21   -1    0    0  501  503  0.00000000000E+00  0.00000000000E+00  0.33570067192E+02  0.33570067192E+02  0.00000000000E+00 0.  1.
        2   -1    0    0  503    0  0.00000000000E+00  0.00000000000E+00 -0.14083530892E+04  0.14083530892E+04  0.25500000920E-02 0. -1.
       25    2    1    2    0    0  0.13356091932E+03 -0.75141369845E+02 -0.50766279272E+03  0.54482255658E+03  0.12500144966E+03 0.  0.
        6    2    1    2  501    0 -0.13356091932E+03  0.75141369845E+02 -0.86712022928E+03  0.89710059980E+03  0.17148542069E+03 0.  0.
       24    2    4    4    0    0 -0.58322499294E+02 -0.80594658495E+01 -0.23355345144E+03  0.25366283988E+03  0.79568541180E+02 0.  0.
      -13    1    5    5    0    0 -0.19079855041E+02 -0.25057101179E+00 -0.25871696578E+01  0.19256382451E+02  0.10565999895E+00 0.  1.
       14    1    5    5    0    0 -0.39242644252E+02 -0.78088948378E+01 -0.23096628178E+03  0.23440645743E+03  0.00000000000E+00 0. -1.
        5    1    4    4  501    0 -0.75238420024E+02  0.83200835694E+02 -0.63356677784E+03  0.64343775992E+03  0.46999998093E+01 0. -1.
        5    1    3    3  502    0  0.78137291202E+02 -0.10733046816E+03 -0.32079457622E+03  0.34721249373E+03  0.46999998093E+01 0. -1.
       -5    1    3    3    0  502  0.55423628116E+02  0.32189098316E+02 -0.18686821650E+03  0.19761006285E+03  0.46999998093E+01 0. -1.
</event>
<event>
10   0  0.1583500E-03  0.1870435E+03  0.7818609E-02  0.1172096E+00
       21   -1    0    0  501  503  0.00000000000E+00  0.00000000000E+00  0.23662941104E+02  0.23662941104E+02  0.00000000000E+00 0.  1.
        2   -1    0    0  503    0  0.00000000000E+00  0.00000000000E+00 -0.30129691590E+04  0.30129691590E+04  0.25500000920E-02 0.  1.
       25    2    1    2    0    0 -0.11802455930E+02 -0.73359206719E+02 -0.26067040748E+04  0.26107569267E+04  0.12499890276E+03 0.  0.
        6    2    1    2  501    0  0.11802455930E+02  0.73359206719E+02 -0.38260214315E+03  0.42587517343E+03  0.17165195084E+03 0.  0.
       24    2    4    4    0    0  0.55719185178E+02  0.16087346466E+02 -0.29777461928E+03  0.31440076432E+03  0.82551113855E+02 0.  0.
      -11    1    5    5    0    0  0.20551246533E+02  0.27326855735E+02 -0.34583201329E+02  0.48632382142E+02  0.51099999109E-03 0.  1.
       12    1    5    5    0    0  0.35167938645E+02 -0.11239509270E+02 -0.26319141796E+03  0.26576838217E+03  0.00000000000E+00 0. -1.
        5    1    4    4  501    0 -0.43916729248E+02  0.57271860253E+02 -0.84827523863E+02  0.11147440912E+03  0.46999998093E+01 0. -1.
        5    1    3    3  502    0  0.26132054188E+02  0.18321546151E+02 -0.26643422881E+03  0.26838005066E+03  0.46999998093E+01 0. -1.
       -5    1    3    3    0  502 -0.37934510118E+02 -0.91680752870E+02 -0.23402698460E+04  0.23423768761E+04  0.46999998093E+01 0. -1.
</event>
<event>
10   0  0.1583500E-03  0.1801229E+03  0.7818609E-02  0.1180197E+00
        2   -1    0    0  503    0  0.00000000000E+00  0.00000000000E+00  0.60437416791E+03  0.60437416792E+03  0.00000000000E+00 0. -1.
       21   -1    0    0  501  503  0.00000000000E+00  0.00000000000E+00 -0.49908457245E+02  0.49908457245E+02  0.25500000920E-02 0.  1.
       25    2    1    2    0    0 -0.37293030157E+02 -0.36897561453E+02  0.38026174095E+03  0.40370072881E+03  0.12499234646E+03 0.  0.
        6    2    1    2  501    0  0.37293030157E+02  0.36897561453E+02  0.17420396972E+03  0.25058189635E+03  0.17231385195E+03 0.  0.
       24    2    4    4    0    0 -0.16803337555E+02  0.28694364317E+01  0.20780392777E+02  0.84313395871E+02  0.79914568015E+02 0.  0.
      -11    1    5    5    0    0  0.19072922570E+02  0.13781605119E+01 -0.21545916244E+02  0.28808023341E+02  0.51099999109E-03 0.  1.
       12    1    5    5    0    0 -0.35876260125E+02  0.14912759198E+01  0.42326309021E+02  0.55505372530E+02  0.00000000000E+00 0. -1.
        5    1    4    4  501    0  0.54096367712E+02  0.34028125021E+02  0.15342357694E+03  0.16626850048E+03  0.46999998093E+01 0. -1.
        5    1    3    3  502    0 -0.54804496444E+02 -0.72122252570E+02  0.31047206871E+03  0.32345037887E+03  0.46999998093E+01 0.  1.
       -5    1    3    3    0  502  0.17511466287E+02  0.35224691117E+02  0.69789672239E+02  0.80250349938E+02  0.46999998093E+01 0.  1.
</event>
<event>
10   0  0.1583500E-03  0.1808736E+03  0.7818609E-02  0.1179235E+00
        2   -1    0    0  503    0  0.00000000000E+00  0.00000000000E+00  0.79365271391E+03  0.79365271391E+03  0.00000000000E+00 0. -1.
       21   -1    0    0  501  503  0.00000000000E+00  0.00000000000E+00 -0.13872852406E+03  0.13872852406E+03  0.25500000920E-02 0. -1.
       25    2    1    2    0    0 -0.17849522080E+01 -0.55594902849E+02  0.72545583506E+03  0.73824215864E+03  0.12498534669E+03 0.  0.
        6    2    1    2  501    0  0.17849522080E+01  0.55594902849E+02 -0.70531645208E+02  0.19413907933E+03  0.17210836665E+03 0.  0.
       24    2    4    4    0    0  0.41801964042E+02 -0.20469229884E+02 -0.20790176137E+02  0.94723701908E+02  0.79837050982E+02 0.  0.
      -15    1    5    5    0    0  0.57659098998E+01 -0.41488522987E+02 -0.30555132397E+02  0.51877905714E+02  0.17769999504E+01 0.  1.
       16    1    5    5    0    0  0.36036054142E+02  0.21019293103E+02  0.97649562601E+01  0.42845796194E+02  0.00000000000E+00 0. -1.
        5    1    4    4  501    0 -0.40017011834E+02  0.76064132733E+02 -0.49741469071E+02  0.99415377423E+02  0.46999998093E+01 0. -1.
        5    1    3    3  502    0 -0.61638377964E+02 -0.39300265026E+02  0.44312798828E+03  0.44914174207E+03  0.46999998093E+01 0.  1.
       -5    1    3    3    0  502  0.59853425757E+02 -0.16294637822E+02  0.28232784678E+03  0.28910041657E+03  0.46999998093E+01 0.  1.
</event>
<event>
10   0  0.1583500E-03  0.2261332E+03  0.7818609E-02  0.1135932E+00
        2   -1    0    0  503    0  0.00000000000E+00  0.00000000000E+00  0.13053624293E+04  0.13053624293E+04  0.00000000000E+00 0. -1.
       21   -1    0    0  501  503  0.00000000000E+00  0.00000000000E+00 -0.41883731523E+02  0.41883731523E+02  0.25500000920E-02 0.  1.
       25    2    1    2    0    0  0.66305343404E+02 -0.13085516061E+03  0.89011981109E+03  0.91074522036E+03  0.12499642674E+03 0.  0.
        6    2    1    2  501    0 -0.66305343404E+02  0.13085516061E+03  0.37335888667E+03  0.43650094044E+03  0.17209515139E+03 0.  0.
       24    2    4    4    0    0 -0.85885935285E+02  0.68583728167E+02  0.14706876606E+03  0.20093685244E+03  0.81647260013E+02 0.  0.
      -15    1    5    5    0    0 -0.14289934188E+02 -0.18933857241E+02  0.23391540773E+02  0.33361880608E+02  0.17769999504E+01 0.  1.
       16    1    5    5    0    0 -0.71596001097E+02  0.87517585408E+02  0.12367722529E+03  0.16757497183E+03  0.00000000000E+00 0. -1.
        5    1    4    4  501    0  0.19580591881E+02  0.62271432439E+02  0.22629012060E+03  0.23556408800E+03  0.46999998093E+01 0. -1.
        5    1    3    3  502    0  0.98785751898E+02 -0.69147625840E+02  0.49541302153E+03  0.50989819655E+03  0.46999998093E+01 0.  1.
       -5    1    3    3    0  502 -0.32480408494E+02 -0.61707534766E+02  0.39470678955E+03  0.40084702381E+03  0.46999998093E+01 0.  1.
</event>
<event>
10   0  0.1583500E-03  0.3169890E+03  0.7818609E-02  0.1079820E+00
       21   -1    0    0  501  503  0.00000000000E+00  0.00000000000E+00  0.93895006433E+02  0.93895006433E+02  0.00000000000E+00 0. -1.
        2   -1    0    0  503    0  0.00000000000E+00  0.00000000000E+00 -0.17278355542E+04  0.17278355542E+04  0.25500000920E-02 0.  1.
       25    2    1    2    0    0  0.26198370552E+03 -0.47132819448E+02 -0.13926348215E+04  0.14233457183E+04  0.12499729171E+03 0.  0.
        6    2    1    2  501    0 -0.26198370552E+03  0.47132819448E+02 -0.24130572623E+03  0.39838484236E+03  0.17211933211E+03 0.  0.
       24    2    4    4    0    0 -0.65383290447E+02  0.34515544298E+02 -0.39027931236E+02  0.11598562992E+03  0.80393964105E+02 0.  0.
      -11    1    5    5    0    0 -0.20562389159E+02 -0.26259604684E+02 -0.76973087540E+01  0.34229041009E+02  0.51099999109E-03 0.  1.
       12    1    5    5    0    0 -0.44820901288E+02  0.60775148982E+02 -0.31330622482E+02  0.81756588916E+02  0.00000000000E+00 0. -1.
        5    1    4    4  501    0 -0.19660041507E+03  0.12617275149E+02 -0.20227779499E+03  0.28239921243E+03  0.46999998093E+01 0. -1.
        5    1    3    3  502    0  0.10392137360E+03  0.25015872598E+02 -0.75108130630E+03  0.75866373608E+03  0.46999998093E+01 0.  1.
       -5    1    3    3    0  502  0.15806233192E+03 -0.72148692046E+02 -0.64155351522E+03  0.66468198218E+03  0.46999998093E+01 0.  1.
</event>
<event>
10   0  0.1583500E-03  0.1988197E+03  0.7818609E-02  0.1159601E+00
       21   -1    0    0  501  503  0.00000000000E+00  0.00000000000E+00  0.12090323999E+03  0.12090323999E+03  0.00000000000E+00 0. -1.
        2   -1    0    0  503    0  0.00000000000E+00  0.00000000000E+00 -0.29455732953E+03  0.29455732955E+03  0.25500000920E-02 0.  1.
       25    2    1    2    0    0 -0.37559836306E+02 -0.95058372497E+02 -0.14020569952E+03  0.21384687963E+03  0.12500405700E+03 0.  0.
        6    2    1    2  501    0  0.37559836306E+02  0.95058372497E+02 -0.33448390023E+02  0.20161368991E+03  0.17053577243E+03 0.  0.
       24    2    4    4    0    0 -0.53484696339E+01 -0.85211848170E+01 -0.40058791878E+02  0.89205350257E+02  0.79067509065E+02 0.  0.
      -13    1    5    5    0    0  0.30462359371E+02  0.66285378294E+01 -0.39496475020E+02  0.50317745927E+02  0.10565999895E+00 0.  1.
       14    1    5    5    0    0 -0.35810829005E+02 -0.15149722646E+02 -0.56231685824E+00  0.38887604330E+02  0.00000000000E+00 0. -1.
        5    1    4    4  501    0  0.42908305940E+02  0.10357955731E+03  0.66104018543E+01  0.11240833965E+03  0.46999998093E+01 0. -1.
        5    1    3    3  502    0  0.28427963164E+02  0.11863980726E+02 -0.97201286897E+01  0.32641599658E+02  0.46999998093E+01 0.  1.
       -5    1    3    3    0  502 -0.65987799470E+02 -0.10692235322E+03 -0.13048557083E+03  0.18120527997E+03  0.46999998093E+01 0.  1.
</event>
<event>
10   0  0.1583500E-03  0.2203907E+03  0.7818609E-02  0.1140733E+00
       21   -1    0    0  501  503  0.00000000000E+00  0.00000000000E+00  0.73907112887E+02  0.73907112887E+02  0.00000000000E+00 0.  1.
        2   -1    0    0  503    0  0.00000000000E+00  0.00000000000E+00 -0.82353356302E+03  0.82353356303E+03  0.25500000920E-02 0. -1.
       25    2    1    2    0    0  0.23721825171E+02 -0.13479550332E+03 -0.60761622974E+03  0.63525949262E+03  0.12499835043E+03 0.  0.
        6    2    1    2  501    0 -0.23721825171E+02  0.13479550332E+03 -0.14201022040E+03  0.26218118330E+03  0.17274118639E+03 0.  0.
       24    2    4    4    0    0 -0.61747748746E+02  0.12610771304E+03 -0.62111770800E+02  0.17314579253E+03  0.80035327413E+02 0.  0.
      -15    1    5    5    0    0 -0.54396677488E+01  0.83461056793E+02 -0.77530509915E+01  0.84015507585E+02  0.17769999504E+01 0.  1.
       16    1    5    5    0    0 -0.56308080997E+02  0.42646656251E+02 -0.54358719809E+02  0.89130284944E+02  0.00000000000E+00 0. -1.
        5    1    4    4  501    0  0.38025923575E+02  0.86877902777E+01 -0.79898449597E+02  0.89035390771E+02  0.46999998093E+01 0. -1.
        5    1    3    3  502    0  0.41449804007E+02 -0.30758237233E+01 -0.70964256744E+02  0.82374526871E+02  0.46999998093E+01 0. -1.
       -5    1    3    3    0  502 -0.17727978836E+02 -0.13171967960E+03 -0.53665197300E+03  0.55288496574E+03  0.46999998093E+01 0. -1.
</event>
<event>
10   0  0.1583500E-03  0.2121415E+03  0.7818609E-02  0.1147264E+00
       21   -1    0    0  501  503  0.00000000000E+00  0.00000000000E+00  0.72527739198E+02  0.72527739198E+02  0.00000000000E+00 0.  1.
        2   -1    0    0  503    0  0.00000000000E+00  0.00000000000E+00 -0.52407904849E+03  0.52407904850E+03  0.25500000920E-02 0.  1.
       25    2    1    2    0    0 -0.28945525172E+02 -0.12299554327E+03 -0.20137671171E+03  0.26859557116E+03  0.12500101494E+03 0.  0.
        6    2    1    2  501    0  0.28945525172E+02  0.12299554327E+03 -0.25017459759E+03  0.32801121654E+03  0.17040622583E+03 0.  0.
       24    2    4    4    0    0  0.58401066049E+01  0.42357268917E+02 -0.38116100520E+02  0.99916306828E+02  0.81866880825E+02 0.  0.
      -13    1    5    5    0    0  0.72260823932E+01  0.65187864263E+02 -0.14763376187E+02  0.67228285375E+02  0.10565999895E+00 0.  1.
       14    1    5    5    0    0 -0.13859757883E+01 -0.22830595346E+02 -0.23352724333E+02  0.32688021453E+02  0.00000000000E+00 0. -1.
        5    1    4    4  501    0  0.23105418567E+02  0.80638274357E+02 -0.21205849707E+03  0.22809490971E+03  0.46999998093E+01 0. -1.
        5    1    3    3  502    0 -0.14619505259E+02 -0.14599209420E+03 -0.18646031503E+03  0.23731194782E+03  0.46999998093E+01 0.  1.
       -5    1    3    3    0  502 -0.14326019912E+02  0.22996550923E+02 -0.14916396680E+02  0.31283623336E+02  0.46999998093E+01 0.  1.
</event>
<event>
10   0  0.1583500E-03  0.1887011E+03  0.7818609E-02  0.1173441E+00
       21   -1    0    0  501  503  0.00000000000E+00  0.00000000000E+00  0.39741825697E+02  0.39741825697E+02  0.00000000000E+00 0. -1.
        2   -1    0    0  503    0  0.00000000000E+00  0.00000000000E+00 -0.15965454948E+04  0.15965454948E+04  0.25500000920E-02 0. -1.
       25    2    1    2    0    0  0.44847866073E+02 -0.35022994240E+02 -0.13474875991E+04  0.13544694322E+04  0.12500668738E+03 0.  0.
        6    2    1    2  501    0 -0.44847866073E+02  0.35022994240E+02 -0.20931606998E+03  0.28181788825E+03  0.17991710249E+03 0.  0.
       24    2    4    4    0    0 -0.59177529426E+02 -0.36938303244E+02 -0.77523640069E+02  0.13090366703E+03  0.79116604048E+02 0.  0.
      -15    1    5    5    0    0 -0.14905641866E+02  0.19729330638E+02 -0.46273320727E+02  0.52495738749E+02  0.17769999504E+01 0.  1.
       16    1    5    5    0    0 -0.44271887559E+02 -0.56667633882E+02 -0.31250319342E+02  0.78407928278E+02  0.00000000000E+00 0. -1.
        5    1    4    4  501    0  0.14329663352E+02  0.71961297484E+02 -0.13179242992E+03  0.15091422123E+03  0.46999998093E+01 0. -1.
        5    1    3    3  502    0 -0.71085939114E+01 -0.38585289584E+02 -0.11333956932E+04  0.11340843196E+04  0.46999998093E+01 0. -1.
       -5    1    3    3    0  502  0.51956459985E+02  0.35622953439E+01 -0.21409190596E+03  0.22038511265E+03  0.46999998093E+01 0. -1.
</event>
<event>
10   0  0.1583500E-03  0.2106915E+03  0.7818609E-02  0.1148961E+00
       21   -1    0    0  501  503  0.00000000000E+00  0.00000000000E+00  0.70857366881E+03  0.70857366881E+03  0.00000000000E+00 0. -1.
        2   -1    0    0  503    0  0.00000000000E+00  0.00000000000E+00 -0.12630880511E+03  0.12630880514E+03  0.25500000920E-02 0. -1.
       25    2    1    2    0    0 -0.25227674687E+02 -0.11876596331E+03 -0.39253316090E+02  0.17862358027E+03  0.12499508387E+03 0.  0.
        6    2    1    2  501    0  0.25227674687E+02  0.11876596331E+03  0.62151817979E+03  0.65625889368E+03  0.17218913472E+03 0.  0.
       24    2    4    4    0    0 -0.20514265407E+02 -0.63938114566E+01  0.17248716403E+03  0.18784856350E+03  0.71228822437E+02 0.  0.
      -15    1    5    5    0    0  0.17269607991E+02  0.21022235257E+02  0.53884051334E+02  0.60388926571E+02  0.17769999504E+01 0.  1.
       16    1    5    5    0    0 -0.37783873398E+02 -0.27416046713E+02  0.11860311269E+03  0.12745963693E+03  0.00000000000E+00 0. -1.
        5    1    4    4  501    0  0.45741940095E+02  0.12515977477E+03  0.44903101576E+03  0.46841033018E+03  0.46999998093E+01 0. -1.
        5    1    3    3  502    0  0.38979116144E+02 -0.59600767163E+02 -0.54587566199E+02  0.89852742438E+02  0.46999998093E+01 0.  1.
       -5    1    3    3    0  502 -0.64206790832E+02 -0.59165196151E+02  0.15334250109E+02  0.88770837831E+02  0.46999998093E+01 0.  1.
</event>
<event>
10   0  0.1583500E-03  0.1872539E+03  0.7818609E-02  0.1172194E+00
       21   -1    0    0  501  503  0.00000000000E+00  0.00000000000E+00  0.83928324527E+02  0.83928324527E+02  0.00000000000E+00 0. -1.
       -2   -1    0    0    0  501  0.00000000000E+00  0.00000000000E+00 -0.36999176158E+03  0.36999176159E+03  0.25500000920E-02 0.  1.
       25    2    1    2    0    0  0.76472871198E+01 -0.72301371323E+02 -0.20258883878E+03  0.24890298139E+03  0.12499794898E+03 0.  0.
       -6    2    1    2    0  503 -0.76472871198E+01  0.72301371323E+02 -0.83474598272E+02  0.20501710473E+03  0.17256313448E+03 0.  0.
      -24    2    4    4    0    0 -0.41974137515E+02 -0.44354614517E+01 -0.54691876133E+01  0.90239893349E+02  0.79572764186E+02 0.  0.
       11    1    5    5    0    0  0.50726269353E+01  0.30423524063E+02 -0.71522366072E+01  0.31661914806E+02  0.51099999109E-03 0. -1.
      -12    1    5    5    0    0 -0.47046764450E+02 -0.34858985514E+02  0.16830489939E+01  0.58577978544E+02  0.00000000000E+00 0.  1.
       -5    1    4    4    0  503  0.34326850395E+02  0.76736832774E+02 -0.78005410659E+02  0.11477721138E+03  0.46999998093E+01 0.  1.
        5    1    3    3  502    0  0.76276563506E+01 -0.10750246639E+03 -0.13761401472E+03  0.17485613648E+03  0.46999998093E+01 0. -1.
       -5    1    3    3    0  502  0.19630769174E-01  0.35201095068E+02 -0.64974824066E+02  0.74046844903E+02  0.46999998093E+01 0. -1.
</event>
<event>
10   0  0.1583500E-03  0.2500658E+03  0.7818609E-02  0.1118381E+00
        2   -1    0    0  503    0  0.00000000000E+00  0.00000000000E+00  0.18750851022E+04  0.18750851022E+04  0.00000000000E+00 0.  1.
       21   -1    0    0  501  503  0.00000000000E+00  0.00000000000E+00 -0.69359405935E+02  0.69359405935E+02  0.25500000920E-02 0. -1.
       25    2    1    2    0    0  0.97088581765E+02 -0.15252636253E+03  0.16151465407E+04  0.16300350126E+04  0.12500124272E+03 0.  0.
        6    2    1    2  501    0 -0.97088581765E+02  0.15252636253E+03  0.19057915561E+03  0.31440949549E+03  0.17274962323E+03 0.  0.
       24    2    4    4    0    0 -0.11037432270E+03  0.10031407193E+03  0.20030605003E+03  0.25946100438E+03  0.70371123178E+02 0.  0.
      -11    1    5    5    0    0 -0.48857371730E+02  0.64288024236E+02  0.15562710506E+03  0.17532766085E+03  0.51099999109E-03 0.  1.
       12    1    5    5    0    0 -0.61516950969E+02  0.36026047695E+02  0.44678944977E+02  0.84133343529E+02  0.00000000000E+00 0. -1.
        5    1    4    4  501    0  0.13285740934E+02  0.52212290599E+02 -0.97268944233E+01  0.54948491108E+02  0.46999998093E+01 0. -1.
        5    1    3    3  502    0  0.76576766993E+02 -0.22246101403E+02  0.41199595714E+03  0.41966849890E+03  0.46999998093E+01 0.  1.
       -5    1    3    3    0  502  0.20511814772E+02 -0.13028026113E+03  0.12031505835E+04  0.12103665138E+04  0.46999998093E+01 0.  1.
</event>
<event>
10   0  0.1583500E-03  0.1904388E+03  0.7818609E-02  0.1168649E+00
       21   -1    0    0  501  503  0.00000000000E+00  0.00000000000E+00  0.19904333285E+02  0.19904333285E+02  0.00000000000E+00 0.  1.
        2   -1    0    0  503    0  0.00000000000E+00  0.00000000000E+00 -0.17115895658E+04  0.17115895658E+04  0.25500000920E-02 0.  1.
       25    2    1    2    0    0  0.29603921981E+02 -0.75635607938E+02 -0.10964280910E+04  0.11065155107E+04  0.12499951712E+03 0.  0.
        6    2    1    2  501    0 -0.29603921981E+02  0.75635607938E+02 -0.59525714146E+03  0.62497838834E+03  0.17224919172E+03 0.  0.
       24    2    4    4    0    0 -0.66096900306E+02  0.96954071874E+02 -0.51452065385E+03  0.53372771820E+03  0.79780208392E+02 0.  0.
      -13    1    5    5    0    0  0.31327248100E+01  0.28495342070E+02 -0.39350478823E+02  0.48685417037E+02  0.10565999895E+00 0.  1.
       14    1    5    5    0    0 -0.69229625116E+02  0.68458729804E+02 -0.47517017503E+03  0.48504230116E+03  0.00000000000E+00 0. -1.
        5    1    4    4  501    0  0.36492978326E+02 -0.21318463936E+02 -0.80736487613E+02  0.91250670145E+02  0.46999998093E+01 0. -1.
        5    1    3    3  502    0  0.34741524734E+02 -0.10577289708E+03 -0.69282455757E+03  0.70172846378E+03  0.46999998093E+01 0.  1.
       -5    1    3    3    0  502 -0.51376027534E+01  0.30137289137E+02 -0.40360353343E+03  0.40478704692E+03  0.46999998093E+01 0.  1.
</event>
<event>
10   0  0.1583500E-03  0.1865018E+03  0.7818609E-02  0.1172598E+00
       -2   -1    0    0    0  501  0.00000000000E+00  0.00000000000E+00  0.21244613004E+02  0.21244613157E+02  0.00000000000E+00 0.  1.
       21   -1    0    0  501  503  0.00000000000E+00  0.00000000000E+00 -0.12977959251E+04  0.12977959251E+04  0.25500000920E-02 0.  1.
       25    2    1    2    0    0 -0.67383454647E+02 -0.29423065075E+02 -0.52039118170E+03  0.54022024705E+03  0.12499874644E+03 0.  0.
       -6    2    1    2    0  503  0.67383454647E+02  0.29423065075E+02 -0.75616013039E+03  0.77882029120E+03  0.17139619739E+03 0.  0.
      -24    2    4    4    0    0  0.10932783713E+03  0.97228414016E+01 -0.47608503254E+03  0.49489850537E+03  0.78869910572E+02 0.  0.
       11    1    5    5    0    0  0.69139869943E+02 -0.95958604820E+01 -0.40510368085E+03  0.41107346593E+03  0.51099999109E-03 0. -1.
      -12    1    5    5    0    0  0.40187967192E+02  0.19318701884E+02 -0.70981351685E+02  0.83825039436E+02  0.00000000000E+00 0.  1.
       -5    1    4    4    0  503 -0.41944382488E+02  0.19700223673E+02 -0.28007509785E+03  0.28392178583E+03  0.46999998093E+01 0.  1.
        5    1    3    3  502    0 -0.34070676364E+02 -0.75898228735E+02 -0.36974886529E+03  0.37902198550E+03  0.46999998093E+01 0. -1.
       -5    1    3    3    0  502 -0.33312778282E+02  0.46475163660E+02 -0.15064231641E+03  0.16119826155E+03  0.46999998093E+01 0. -1.
</event>
<event>
10   0  0.1583500E-03  0.1837534E+03  0.7818609E-02  0.1175501E+00
        2   -1    0    0  503    0  0.00000000000E+00  0.00000000000E+00  0.15909264475E+04  0.15909264475E+04  0.00000000000E+00 0.  1.
       21   -1    0    0  501  503  0.00000000000E+00  0.00000000000E+00 -0.38726005172E+02  0.38726005172E+02  0.25500000920E-02 0.  1.
       25    2    1    2    0    0 -0.25630580384E+02 -0.62215718269E+02  0.13459698483E+04  0.13534344535E+04  0.12498906084E+03 0.  0.
        6    2    1    2  501    0  0.25630580384E+02  0.62215718269E+02  0.20623059410E+03  0.27621799918E+03  0.17099006660E+03 0.  0.
       24    2    4    4    0    0 -0.89422007867E+01 -0.16871822006E+02  0.15592706140E+03  0.17620474193E+03  0.79813791224E+02 0.  0.
      -13    1    5    5    0    0  0.12249594500E+02 -0.23204821401E+02  0.91785544816E+01  0.27798800839E+02  0.10565999895E+00 0.  1.
       14    1    5    5    0    0 -0.21191795287E+02  0.63329993958E+01  0.14674850692E+03  0.14840594109E+03  0.00000000000E+00 0. -1.
        5    1    4    4  501    0  0.34572781170E+02  0.79087540275E+02  0.50303532705E+02  0.10001325725E+03  0.46999998093E+01 0. -1.
        5    1    3    3  502    0 -0.70879485824E+02 -0.12980185182E+02  0.56568254338E+03  0.57027293167E+03  0.46999998093E+01 0. -1.
       -5    1    3    3    0  502  0.45248905440E+02 -0.49235533088E+02  0.78028730488E+03  0.78316152186E+03  0.46999998093E+01 0. -1.
</event>
<event>
10   0  0.1583500E-03  0.3076383E+03  0.7818609E-02  0.1084134E+00
       21   -1    0    0  501  503  0.00000000000E+00  0.00000000000E+00  0.79906266928E+03  0.79906266928E+03  0.00000000000E+00 0. -1.
        2   -1    0    0  503    0  0.00000000000E+00  0.00000000000E+00 -0.34341007937E+03  0.34341007937E+03  0.25500000920E-02 0.  1.
       25    2    1    2    0    0 -0.17256837314E+03 -0.19156084620E+03 -0.24515776602E+03  0.37711240704E+03  0.12504413661E+03 0.  0.
        6    2    1    2  501    0  0.17256837314E+03  0.19156084620E+03  0.70081035593E+03  0.76536034161E+03  0.16782698334E+03 0.  0.
       24    2    4    4    0    0  0.20901637978E+02  0.38434559539E+02  0.21761063281E+03  0.23625305510E+03  0.80913686707E+02 0.  0.
      -15    1    5    5    0    0 -0.21283069094E+02  0.25918341552E+02  0.16145657357E+03  0.16491243840E+03  0.17769999504E+01 0.  1.
       16    1    5    5    0    0  0.42184707072E+02  0.12516217988E+02  0.56154059236E+02  0.71340616707E+02  0.00000000000E+00 0. -1.
        5    1    4    4  501    0  0.15166673516E+03  0.15312628666E+03  0.48319972312E+03  0.52910728651E+03  0.46999998093E+01 0. -1.
        5    1    3    3  502    0 -0.54609076999E+02 -0.36724982436E+02 -0.25382337062E+01  0.66025815058E+02  0.46999998093E+01 0.  1.
       -5    1    3    3    0  502 -0.11795929614E+03 -0.15483586376E+03 -0.24261953231E+03  0.31108659198E+03  0.46999998093E+01 0.  1.
</event>
<event>
10   0  0.1583500E-03  0.3273763E+03  0.7818609E-02  0.1074909E+00
       -2   -1    0    0    0  501  0.00000000000E+00  0.00000000000E+00  0.71568228592E+03  0.71568228592E+03  0.00000000000E+00 0.  1.
       21   -1    0    0  501  503  0.00000000000E+00  0.00000000000E+00 -0.23465950365E+03  0.23465950365E+03  0.25500000920E-02 0. -1.
       25    2    1    2    0    0  0.93697177800E+01  0.27796900294E+03  0.53765447663E+03  0.61810336658E+03  0.12499950931E+03 0.  0.
       -6    2    1    2    0  503 -0.93697177800E+01 -0.27796900294E+03 -0.56631694360E+02  0.33223842299E+03  0.17268660253E+03 0.  0.
      -24    2    4    4    0    0 -0.18958225165E+02 -0.29492274187E+03 -0.46400500377E+02  0.30974095499E+03  0.80297040980E+02 0.  0.
       13    1    5    5    0    0 -0.25898950095E+02 -0.70599995398E+02 -0.40096390200E+02  0.85222336493E+02  0.10565999895E+00 0. -1.
      -14    1    5    5    0    0  0.69407249295E+01 -0.22432274648E+03 -0.63041101767E+01  0.22451861850E+03  0.00000000000E+00 0.  1.
       -5    1    4    4    0  503  0.95885073852E+01  0.16953738930E+02 -0.10231193983E+02  0.22497467993E+02  0.46999998093E+01 0.  1.
        5    1    3    3  502    0 -0.52593517913E+02  0.18271901027E+03  0.36024792042E+03  0.40737325514E+03  0.46999998093E+01 0. -1.
       -5    1    3    3    0  502  0.61963235693E+02  0.95249992674E+02  0.17740655621E+03  0.21073011144E+03  0.46999998093E+01 0. -1.
</event>
<event>
10   0  0.1583500E-03  0.1943360E+03  0.7818609E-02  0.1164732E+00
        2   -1    0    0  503    0  0.00000000000E+00  0.00000000000E+00  0.14105625736E+04  0.14105625736E+04  0.00000000000E+00 0.  1.
       21   -1    0    0  501  503  0.00000000000E+00  0.00000000000E+00 -0.33779009666E+02  0.33779009666E+02  0.25500000920E-02 0.  1.
       25    2    1    2    0    0  0.85563097682E+02 -0.24890508226E+02  0.10715741039E+04  0.10825138486E+04  0.12499836475E+03 0.  0.
        6    2    1    2  501    0 -0.85563097682E+02  0.24890508226E+02  0.30520945995E+03  0.36182773458E+03  0.17270180655E+03 0.  0.
       24    2    4    4    0    0 -0.10856167127E+03  0.61130230999E+02  0.20107217315E+03  0.24909390472E+03  0.78071844760E+02 0.  0.
      -15    1    5    5    0    0  0.34984143083E+01  0.11321173423E+02 -0.17217084170E+01  0.12104952666E+02  0.17769999504E+01 0.  1.
       16    1    5    5    0    0 -0.11206008558E+03  0.49809057576E+02  0.20279388156E+03  0.23698895205E+03  0.00000000000E+00 0. -1.
        5    1    4    4  501    0  0.22998573587E+02 -0.36239722773E+02  0.10413728681E+03  0.11273382986E+03  0.46999998093E+01 0. -1.
        5    1    3    3  502    0  0.10623993488E+03 -0.24740493912E+02  0.56251480865E+03  0.57301310260E+03  0.46999998093E+01 0. -1.
       -5    1    3    3    0  502 -0.20676837201E+02 -0.15001431436E+00  0.50905929528E+03  0.50950074604E+03  0.46999998093E+01 0. -1.
</event>
<event>
10   0  0.1583500E-03  0.1748139E+03  0.7818609E-02  0.1186467E+00
        4   -1    0    0  503    0  0.00000000000E+00  0.00000000000E+00  0.43331206418E+03  0.43331392531E+03  0.00000000000E+00 0. -1.
       21   -1    0    0  501  503  0.00000000000E+00  0.00000000000E+00 -0.53408076951E+02  0.53408076951E+02  0.12699999809E+01 0. -1.
       25    2    1    2    0    0  0.22722922640E+02 -0.21742265262E+02  0.14691749625E+03  0.19544445706E+03  0.12499891112E+03 0.  0.
        6    2    1    2  501    0 -0.22722922640E+02  0.21742265262E+02  0.23298649098E+03  0.29127754520E+03  0.17196175750E+03 0.  0.
       24    2    4    4    0    0  0.21913844408E+02 -0.32388606385E+02  0.18478500727E+03  0.20602459646E+03  0.82288498794E+02 0.  0.
      -11    1    5    5    0    0 -0.28324214173E+02 -0.81623793335E+01  0.10222961473E+03  0.10639445320E+03  0.51099999109E-03 0.  1.
       12    1    5    5    0    0  0.50238058581E+02 -0.24226227051E+02  0.82555392547E+02  0.99630143258E+02  0.00000000000E+00 0. -1.
        5    1    4    4  501    0 -0.44636767048E+02  0.54130871647E+02  0.48201483709E+02  0.85252948733E+02  0.46999998093E+01 0. -1.
        5    1    3    3  502    0  0.65484126419E+02  0.19073175841E+02  0.65156856413E+02  0.94442907544E+02  0.46999998093E+01 0.  1.
       -5    1    3    3    0  502 -0.42761203778E+02 -0.40815441102E+02  0.81760639834E+02  0.10100154952E+03  0.46999998093E+01 0.  1.
</event>
<event>
10   0  0.1583500E-03  0.1874643E+03  0.7818609E-02  0.1166837E+00
       21   -1    0    0  501  503  0.00000000000E+00  0.00000000000E+00  0.37111887259E+02  0.37111887259E+02  0.00000000000E+00 0. -1.
        2   -1    0    0  503    0  0.00000000000E+00  0.00000000000E+00 -0.10119444499E+04  0.10119444499E+04  0.25500000920E-02 0.  1.
       25    2    1    2    0    0 -0.91557755516E+01  0.10407771305E+03 -0.68329033663E+03  0.70244452481E+03  0.12500651071E+03 0.  0.
        6    2    1    2  501    0  0.91557755516E+01 -0.10407771305E+03 -0.29154222603E+03  0.34661181237E+03  0.15564986457E+03 0.  0.
       24    2    4    4    0    0 -0.37922579257E+02 -0.56691617375E+02 -0.10422742898E+03  0.14768786523E+03  0.79349146730E+02 0.  0.
      -13    1    5    5    0    0 -0.59208778704E+02 -0.22868532765E+02 -0.74549110212E+02  0.97909296105E+02  0.10565999895E+00 0.  1.
       14    1    5    5    0    0  0.21286199446E+02 -0.33823084610E+02 -0.29678318770E+02  0.49778569128E+02  0.00000000000E+00 0. -1.
        5    1    4    4  501    0  0.47078354809E+02 -0.47386095671E+02 -0.18731479705E+03  0.19892394714E+03  0.46999998093E+01 0. -1.
        5    1    3    3  502    0 -0.66476791482E+02  0.44923559816E+02 -0.32898615470E+03  0.33866099571E+03  0.46999998093E+01 0. -1.
       -5    1    3    3    0  502  0.57321015930E+02  0.59154153230E+02 -0.35430418193E+03  0.36378352910E+03  0.46999998093E+01 0. -1.
</event>
<event>
10   0  0.1583500E-03  0.1721718E+03  0.7818609E-02  0.1188886E+00
        2   -1    0    0  503    0  0.00000000000E+00  0.00000000000E+00  0.14303285069E+04  0.14303285069E+04  0.00000000000E+00 0. -1.
       21   -1    0    0  501  503  0.00000000000E+00  0.00000000000E+00 -0.23112202205E+02  0.23112202205E+02  0.25500000920E-02 0. -1.
       25    2    1    2    0    0 -0.88686306855E+01  0.25434806531E+02  0.10403908729E+04  0.10482197373E+04  0.12500346859E+03 0.  0.
        6    2    1    2  501    0  0.88686306855E+01 -0.25434806531E+02  0.36682543179E+03  0.40522097185E+03  0.17005162929E+03 0.  0.
       24    2    4    4    0    0 -0.36594956924E+02  0.35571757160E+02  0.23956850965E+03  0.25687963289E+03  0.77392080996E+02 0.  0.
      -11    1    5    5    0    0 -0.82732025159E+00  0.42660106651E+02  0.59867667674E+02  0.73516710966E+02  0.51099999109E-03 0.  1.
       12    1    5    5    0    0 -0.35767636672E+02 -0.70883494911E+01  0.17970084197E+03  0.18336292193E+03  0.00000000000E+00 0. -1.
        5    1    4    4  501    0  0.45463587609E+02 -0.61006563691E+02  0.12725692214E+03  0.14834133896E+03  0.46999998093E+01 0. -1.
        5    1    3    3  502    0  0.36082778603E+02  0.48853617074E+02  0.80927982284E+03  0.81156919882E+03  0.46999998093E+01 0. -1.
       -5    1    3    3    0  502 -0.44951409289E+02 -0.23418810543E+02  0.23111105008E+03  0.23665053846E+03  0.46999998093E+01 0. -1.
</event>
<event>
10   0  0.1583500E-03  0.2231773E+03  0.7818609E-02  0.1137836E+00
       21   -1    0    0  501  503  0.00000000000E+00  0.00000000000E+00  0.24497492107E+03  0.24497492107E+03  0.00000000000E+00 0. -1.
        4   -1    0    0  503    0  0.00000000000E+00  0.00000000000E+00 -0.20998104729E+03  0.20998488784E+03  0.12699999809E+01 0.  1.
       25    2    1    2    0    0  0.73723185347E+02  0.12484766916E+03 -0.75677019348E+02  0.20584908286E+03  0.12499914041E+03 0.  0.
        6    2    1    2  501    0 -0.73723185347E+02 -0.12484766916E+03  0.11067089313E+03  0.24911072606E+03  0.16966454756E+03 0.  0.
       24    2    4    4    0    0 -0.31549428261E+02 -0.80990367397E+02  0.13935353677E+03  0.18168022295E+03  0.77675537747E+02 0.  0.
      -15    1    5    5    0    0  0.76781705840E+01  0.11517469938E+02  0.30491568977E+02  0.33533564153E+02  0.17769999504E+01 0.  1.
       16    1    5    5    0    0 -0.39227598845E+02 -0.92507837334E+02  0.10886196780E+03  0.14814665879E+03  0.00000000000E+00 0. -1.
        5    1    4    4  501    0 -0.42173757086E+02 -0.43857301766E+02 -0.28682643644E+02  0.67430503109E+02  0.46999998093E+01 0. -1.
        5    1    3    3  502    0 -0.28397743199E+02  0.45510208573E+02 -0.50894258064E+02  0.74094037582E+02  0.46999998093E+01 0. -1.
       -5    1    3    3    0  502  0.10212092855E+03  0.79337460590E+02 -0.24782761284E+02  0.13175504527E+03  0.46999998093E+01 0. -1.
</event>
<event>
10   0  0.1583500E-03  0.1790422E+03  0.7818609E-02  0.1181112E+00
        2   -1    0    0  503    0  0.00000000000E+00  0.00000000000E+00  0.10268007814E+04  0.10268007814E+04  0.00000000000E+00 0. -1.
       21   -1    0    0  501  503  0.00000000000E+00  0.00000000000E+00 -0.24058384301E+02  0.24058384301E+02  0.25500000920E-02 0. -1.
       25    2    1    2    0    0 -0.50859171354E+02 -0.84690778887E+01  0.44363851877E+03  0.46378740371E+03  0.12500095965E+03 0.  0.
        6    2    1    2  501    0  0.50859171354E+02  0.84690778887E+01  0.55910387831E+03  0.58707176197E+03  0.17145765184E+03 0.  0.
       24    2    4    4    0    0  0.75730362629E+02  0.46904742433E+02  0.28901328411E+03  0.31308837646E+03  0.80996977694E+02 0.  0.
      -11    1    5    5    0    0  0.36990150025E+02 -0.10943230172E+02  0.17736451558E+03  0.18151087261E+03  0.51099999109E-03 0.  1.
       12    1    5    5    0    0  0.38740212604E+02  0.57847972606E+02  0.11164876853E+03  0.13157750386E+03  0.00000000000E+00 0. -1.
        5    1    4    4  501    0 -0.24871191275E+02 -0.38435664545E+02  0.27009059420E+03  0.27398338551E+03  0.46999998093E+01 0. -1.
        5    1    3    3  502    0 -0.11987987993E+02 -0.43795008500E+02  0.37222213353E+03  0.37501082826E+03  0.46999998093E+01 0. -1.
       -5    1    3    3    0  502 -0.38871183361E+02  0.35325930611E+02  0.71416385241E+02  0.88776575449E+02  0.46999998093E+01 0. -1.
</event>
<event>
10   0  0.1583500E-03  0.1845834E+03  0.7818609E-02  0.1176272E+00
       21   -1    0    0  501  503  0.00000000000E+00  0.00000000000E+00  0.10676091020E+03  0.10676091020E+03  0.00000000000E+00 0. -1.
        2   -1    0    0  503    0  0.00000000000E+00  0.00000000000E+00 -0.31406965434E+03  0.31406965435E+03  0.25500000920E-02 0. -1.
       25    2    1    2    0    0  0.15093141606E+02 -0.55555155213E+02 -0.19115624398E+03  0.23554174589E+03  0.12500010501E+03 0.  0.
        6    2    1    2  501    0 -0.15093141606E+02  0.55555155213E+02 -0.16152500159E+02  0.18528881866E+03  0.17537635207E+03 0.  0.
       24    2    4    4    0    0 -0.44998629578E+02  0.87720046958E+02 -0.37563267996E+02  0.13620287923E+03  0.86142567332E+02 0.  0.
      -11    1    5    5    0    0 -0.25067033772E+02 -0.10989022605E+02 -0.20196841417E+02  0.34015102579E+02  0.51099999109E-03 0.  1.
       12    1    5    5    0    0 -0.19931595806E+02  0.98709069564E+02 -0.17366426579E+02  0.10218777665E+03  0.00000000000E+00 0. -1.
        5    1    4    4  501    0  0.29905487972E+02 -0.32164891745E+02  0.21410767837E+02  0.49085939426E+02  0.46999998093E+01 0. -1.
        5    1    3    3  502    0  0.14502002666E+02  0.22082099338E+02  0.24013689514E+01  0.26940374228E+02  0.46999998093E+01 0.  1.
       -5    1    3    3    0  502  0.59113894008E+00 -0.77637254551E+02 -0.19355761293E+03  0.20860137166E+03  0.46999998093E+01 0.  1.
</event>
<event>
10   0  0.1583500E-03  0.2353268E+03  0.7818609E-02  0.1128938E+00
        2   -1    0    0  503    0  0.00000000000E+00  0.00000000000E+00  0.12168432237E+04  0.12168432237E+04  0.00000000000E+00 0. -1.
       21   -1    0    0  501  503  0.00000000000E+00  0.00000000000E+00 -0.12031259278E+03  0.12031259278E+03  0.25500000920E-02 0.  1.
       25    2    1    2    0    0 -0.85234988973E+02  0.13520672621E+03  0.10825640627E+04  0.11014148947E+04  0.12499583324E+03 0.  0.
        6    2    1    2  501    0  0.85234988973E+02 -0.13520672621E+03  0.13966568261E+02  0.23574092179E+03  0.17272190081E+03 0.  0.
       24    2    4    4    0    0 -0.14344190848E+02 -0.10202790785E+03  0.69540539063E+01  0.13044081543E+03  0.79693146977E+02 0.  0.
      -11    1    5    5    0    0 -0.73587583226E+01 -0.11146297609E+03  0.19348850181E+02  0.11336897444E+03  0.51099999109E-03 0.  1.
       12    1    5    5    0    0 -0.69854325256E+01  0.94350682403E+01 -0.12394796275E+02  0.17071840995E+02  0.00000000000E+00 0. -1.
        5    1    4    4  501    0  0.99579179821E+02 -0.33178818367E+02  0.70125143548E+01  0.10530010635E+03  0.46999998093E+01 0. -1.
        5    1    3    3  502    0 -0.11353535093E+03  0.11754449443E+03  0.97761282086E+03  0.99118913513E+03  0.46999998093E+01 0.  1.
       -5    1    3    3    0  502  0.28300361956E+02  0.17662231783E+02  0.10495124179E+03  0.11022575956E+03  0.46999998093E+01 0.  1.
</event>
<event>
10   0  0.1583500E-03  0.2859181E+03  0.7818609E-02  0.1095867E+00
       21   -1    0    0  501  503  0.00000000000E+00  0.00000000000E+00  0.69540670260E+02  0.69540670260E+02  0.00000000000E+00 0. -1.
        2   -1    0    0  503    0  0.00000000000E+00  0.00000000000E+00 -0.11830880124E+04  0.11830880124E+04  0.25500000920E-02 0.  1.
       25    2    1    2    0    0 -0.20191831862E+03 -0.11006841500E+03 -0.72062687972E+03  0.76669078831E+03  0.12500240687E+03 0.  0.
        6    2    1    2  501    0  0.20191831862E+03  0.11006841500E+03 -0.39292046243E+03  0.48593789437E+03  0.16989138886E+03 0.  0.
       24    2    4    4    0    0  0.13031655693E+03  0.11782075819E+03 -0.19584285283E+03  0.27606034600E+03  0.83610738308E+02 0.  0.
      -11    1    5    5    0    0  0.11953346249E+02  0.30912659500E+02 -0.87523221004E+02  0.93588403230E+02  0.51099999109E-03 0.  1.
       12    1    5    5    0    0  0.11836321068E+03  0.86908098694E+02 -0.10831963182E+03  0.18247194277E+03  0.00000000000E+00 0. -1.
        5    1    4    4  501    0  0.71601761692E+02 -0.77523431911E+01 -0.19707760961E+03  0.20987754837E+03  0.46999998093E+01 0. -1.
        5    1    3    3  502    0 -0.21117403129E+03 -0.93385345051E+02 -0.70412148354E+03  0.74102931638E+03  0.46999998093E+01 0. -1.
       -5    1    3    3    0  502  0.92557126685E+01 -0.16683069952E+02 -0.16505396186E+02  0.25661471928E+02  0.46999998093E+01 0. -1.
</event>
<event>
10   0  0.1583500E-03  0.1823405E+03  0.7818609E-02  0.1178161E+00
       21   -1    0    0  501  503  0.00000000000E+00  0.00000000000E+00  0.75315983485E+02  0.75315983485E+02  0.00000000000E+00 0.  1.
        2   -1    0    0  503    0  0.00000000000E+00  0.00000000000E+00 -0.40945286909E+03  0.40945286909E+03  0.25500000920E-02 0.  1.
       25    2    1    2    0    0 -0.27103454269E+02  0.48546021877E+02 -0.24773226456E+03  0.28299223322E+03  0.12498806217E+03 0.  0.
        6    2    1    2  501    0  0.27103454269E+02 -0.48546021877E+02 -0.86404621043E+02  0.20177661936E+03  0.17365693798E+03 0.  0.
       24    2    4    4    0    0  0.74297630934E+02 -0.70475755476E+02 -0.60597776537E+02  0.14349894998E+03  0.80205286932E+02 0.  0.
      -13    1    5    5    0    0  0.60232761400E+02 -0.77021713552E+02 -0.19678494141E+02  0.99737576671E+02  0.10565999895E+00 0.  1.
       14    1    5    5    0    0  0.14064869533E+02  0.65459580762E+01 -0.40919282396E+02  0.43761373309E+02  0.00000000000E+00 0. -1.
        5    1    4    4  501    0 -0.47194176665E+02  0.21929733598E+02 -0.25806844507E+02  0.58277669380E+02  0.46999998093E+01 0. -1.
        5    1    3    3  502    0 -0.49724382405E+02  0.79886819419E+02 -0.14290712296E+03  0.17116937201E+03  0.46999998093E+01 0.  1.
       -5    1    3    3    0  502  0.22620928136E+02 -0.31340797541E+02 -0.10482514160E+03  0.11182286121E+03  0.46999998093E+01 0.  1.
</event>
<event>
10   0  0.1583500E-03  0.1803095E+03  0.7818609E-02  0.1179709E+00
       21   -1    0    0  501  503  0.00000000000E+00  0.00000000000E+00  0.14603656704E+02  0.14603656704E+02  0.00000000000E+00 0.  1.
        2   -1    0    0  503    0  0.00000000000E+00  0.00000000000E+00 -0.27347312756E+04  0.27347312756E+04  0.25500000920E-02 0.  1.
       25    2    1    2    0    0 -0.44659213124E+02 -0.32372255028E+02 -0.20747173730E+04  0.20792111329E+04  0.12499739685E+03 0.  0.
        6    2    1    2  501    0  0.44659213124E+02  0.32372255028E+02 -0.64541024595E+03  0.67012379944E+03  0.17166570066E+03 0.  0.
       24    2    4    4    0    0  0.30802584003E+02  0.22694916718E+01 -0.13405686702E+03  0.15767619170E+03  0.77049257367E+02 0.  0.
      -13    1    5    5    0    0  0.45709109894E+02  0.38170919195E+01 -0.13507945387E+03  0.14265469828E+03  0.10565999895E+00 0.  1.
       14    1    5    5    0    0 -0.14906525891E+02 -0.15476002477E+01  0.10225868587E+01  0.15021493419E+02  0.00000000000E+00 0. -1.
        5    1    4    4  501    0  0.13856629120E+02  0.30102763357E+02 -0.51135337893E+03  0.51244760774E+03  0.46999998093E+01 0. -1.
        5    1    3    3  502    0 -0.38353226800E+02 -0.77906720481E+02 -0.15607024565E+04  0.15631233716E+04  0.46999998093E+01 0. -1.
       -5    1    3    3    0  502 -0.63059863241E+01  0.45534465453E+02 -0.51401491644E+03  0.51608776126E+03  0.46999998093E+01 0. -1.
</event>
<event>
10   0  0.1583500E-03  0.2000860E+03  0.7818609E-02  0.1158569E+00
       21   -1    0    0  501  503  0.00000000000E+00  0.00000000000E+00  0.85459254408E+02  0.85459254408E+02  0.00000000000E+00 0.  1.
        2   -1    0    0  503    0  0.00000000000E+00  0.00000000000E+00 -0.75316762223E+03  0.75316762224E+03  0.25500000920E-02 0.  1.
       25    2    1    2    0    0  0.81921316399E+02 -0.63237880145E+02 -0.60878676676E+03  0.63004559062E+03  0.12500394917E+03 0.  0.
        6    2    1    2  501    0 -0.81921316399E+02  0.63237880145E+02 -0.58921601067E+02  0.20858128603E+03  0.17124329547E+03 0.  0.
       24    2    4    4    0    0 -0.75146953872E+02  0.32552882325E+02  0.26629396581E+02  0.11732053721E+03  0.79675773385E+02 0.  0.
      -11    1    5    5    0    0 -0.23438699630E+02  0.48632620768E+02  0.32239518874E+02  0.62879973128E+02  0.51099999109E-03 0.  1.
       12    1    5    5    0    0 -0.51708254242E+02 -0.16079738443E+02 -0.56101222931E+01  0.54440564080E+02  0.00000000000E+00 0. -1.
        5    1    4    4  501    0 -0.67743625261E+01  0.30684997820E+02 -0.85550997648E+02  0.91260748823E+02  0.46999998093E+01 0. -1.
        5    1    3    3  502    0  0.67330923707E+02  0.24354806623E+02 -0.31646617105E+03  0.32449890186E+03  0.46999998093E+01 0.  1.
       -5    1    3    3    0  502  0.14590392691E+02 -0.87592686768E+02 -0.29232059571E+03  0.30554668875E+03  0.46999998093E+01 0.  1.
</event>
<event>
10   0  0.1583500E-03  0.1795200E+03  0.7818609E-02  0.1180605E+00
        2   -1    0    0  503    0  0.00000000000E+00  0.00000000000E+00  0.99793507006E+03  0.99793507007E+03  0.00000000000E+00 0. -1.
       21   -1    0    0  501  503  0.00000000000E+00  0.00000000000E+00 -0.33457523106E+02  0.33457523106E+02  0.25500000920E-02 0. -1.
       25    2    1    2    0    0  0.14857540787E+01  0.52738784228E+02  0.69143518930E+03  0.70462120158E+03  0.12499931956E+03 0.  0.
        6    2    1    2  501    0 -0.14857540787E+01 -0.52738784228E+02  0.27304235765E+03  0.32677139159E+03  0.17159203495E+03 0.  0.
       24    2    4    4    0    0  0.20272855696E+02 -0.79222822570E+02  0.26806066252E+03  0.29181787001E+03  0.81325925570E+02 0.  0.
      -13    1    5    5    0    0 -0.16690557603E+02 -0.36429275349E+02  0.19684655868E+03  0.20088366197E+03  0.10565999895E+00 0.  1.
       14    1    5    5    0    0  0.36963413299E+02 -0.42793547221E+02  0.71214103839E+02  0.90934208041E+02  0.00000000000E+00 0. -1.
        5    1    4    4  501    0 -0.21758609775E+02  0.26484038342E+02  0.49816951312E+01  0.34953521579E+02  0.46999998093E+01 0. -1.
        5    1    3    3  502    0  0.62325682555E+02  0.27492897912E+02  0.30166245258E+03  0.30929383349E+03  0.46999998093E+01 0. -1.
       -5    1    3    3    0  502 -0.60839928476E+02  0.25245886316E+02  0.38977273672E+03  0.39532736809E+03  0.46999998093E+01 0. -1.
</event>
<event>
10   0  0.1583500E-03  0.1731287E+03  0.7818609E-02  0.1188834E+00
       21   -1    0    0  501  503  0.00000000000E+00  0.00000000000E+00  0.72792190532E+02  0.72792190532E+02  0.00000000000E+00 0. -1.
       -4   -1    0    0    0  501  0.00000000000E+00  0.00000000000E+00 -0.31406375985E+03  0.31406632763E+03  0.12699999809E+01 0. -1.
       25    2    1    2    0    0 -0.14662263635E+02 -0.35440816900E+01 -0.13043445027E+03  0.18129003558E+03  0.12500155476E+03 0.  0.
       -6    2    1    2    0  503  0.14662263635E+02  0.35440816900E+01 -0.11083711905E+03  0.20556848258E+03  0.17247026289E+03 0.  0.
      -24    2    4    4    0    0  0.34282706046E+02  0.54211913029E+02 -0.11140177878E+03  0.15102859139E+03  0.79278267221E+02 0.  0.
       11    1    5    5    0    0  0.37839086132E+02  0.63983047994E+02 -0.51984727329E+02  0.90708537336E+02  0.51099999109E-03 0. -1.
      -12    1    5    5    0    0 -0.35563800867E+01 -0.97711349655E+01 -0.59417051448E+02  0.60320054050E+02  0.00000000000E+00 0.  1.
       -5    1    4    4    0  503 -0.19620442410E+02 -0.50667831339E+02  0.56465972947E+00  0.54539891197E+02  0.46999998093E+01 0.  1.
        5    1    3    3  502    0 -0.18250829000E+02  0.59566550944E+02 -0.62335930625E+02  0.88256019600E+02  0.46999998093E+01 0.  1.
       -5    1    3    3    0  502  0.35885653646E+01 -0.63110632634E+02 -0.68098519644E+02  0.93034015977E+02  0.46999998093E+01 0.  1.
</event>
<event>
10   0  0.1583500E-03  0.1884712E+03  0.7818609E-02  0.1170754E+00
       21   -1    0    0  501  503  0.00000000000E+00  0.00000000000E+00  0.41846287106E+02  0.41846287106E+02  0.00000000000E+00 0. -1.
        2   -1    0    0  503    0  0.00000000000E+00  0.00000000000E+00 -0.73679980977E+03  0.73679980977E+03  0.25500000920E-02 0. -1.
       25    2    1    2    0    0 -0.70034901831E+02  0.30794473014E+02 -0.42380389423E+03  0.44842872081E+03  0.12500155936E+03 0.  0.
        6    2    1    2  501    0  0.70034901831E+02 -0.30794473014E+02 -0.27114962843E+03  0.33021737607E+03  0.17224461505E+03 0.  0.
       24    2    4    4    0    0  0.40987985165E+02 -0.64998887158E+02 -0.87365392119E+02  0.14097572941E+03  0.79602602231E+02 0.  0.
      -13    1    5    5    0    0  0.14352998478E+02 -0.50467957295E+00  0.12572977181E+02  0.19088063967E+02  0.10565999895E+00 0.  1.
       14    1    5    5    0    0  0.26634986687E+02 -0.64494207585E+02 -0.99938369301E+02  0.12188766544E+03  0.00000000000E+00 0. -1.
        5    1    4    4  501    0  0.29046916666E+02  0.34204414143E+02 -0.18378423632E+03  0.18924164666E+03  0.46999998093E+01 0. -1.
        5    1    3    3  502    0 -0.44905727531E+02  0.41853033426E+02 -0.68761459357E+02  0.92295336086E+02  0.46999998093E+01 0.  1.
       -5    1    3    3    0  502 -0.25129174300E+02 -0.11058560412E+02 -0.35504243487E+03  0.35613338472E+03  0.46999998093E+01 0.  1.
</event>
<event>
10   0  0.1583500E-03  0.2104787E+03  0.7818609E-02  0.1149022E+00
       21   -1    0    0  501  503  0.00000000000E+00  0.00000000000E+00  0.22041518451E+03  0.22041518451E+03  0.00000000000E+00 0.  1.
        2   -1    0    0  503    0  0.00000000000E+00  0.00000000000E+00 -0.58309450946E+03  0.58309450946E+03  0.25500000920E-02 0.  1.
       25    2    1    2    0    0 -0.12180289896E+03 -0.26075445573E+00 -0.51495137440E+03  0.54372504139E+03  0.12500395371E+03 0.  0.
        6    2    1    2  501    0  0.12180289896E+03  0.26075445573E+00  0.15227204945E+03  0.25978465258E+03  0.17165452073E+03 0.  0.
       24    2    4    4    0    0  0.93910177602E+02  0.32548279880E+02  0.35178453044E+02  0.13507102654E+03  0.84428352298E+02 0.  0.
      -13    1    5    5    0    0  0.72707776693E+02 -0.12451416163E+00  0.55189711061E+02  0.91281715948E+02  0.10565999895E+00 0.  1.
       14    1    5    5    0    0  0.21202400909E+02  0.32672794042E+02 -0.20011258016E+02  0.43789310593E+02  0.00000000000E+00 0. -1.
        5    1    4    4  501    0  0.27892721359E+02 -0.32287525425E+02  0.11709359641E+03  0.12471362604E+03  0.46999998093E+01 0. -1.
        5    1    3    3  502    0 -0.55698932458E+02  0.14355003353E+02 -0.58208318918E+02  0.81967893639E+02  0.46999998093E+01 0. -1.
       -5    1    3    3    0  502 -0.66103966504E+02 -0.14615757809E+02 -0.45674305548E+03  0.46175714775E+03  0.46999998093E+01 0. -1.
</event>
<event>
10   0  0.1583500E-03  0.2607997E+03  0.7818609E-02  0.1111189E+00
        2   -1    0    0  503    0  0.00000000000E+00  0.00000000000E+00  0.25898372836E+04  0.25898372836E+04  0.00000000000E+00 0. -1.
       21   -1    0    0  501  503  0.00000000000E+00  0.00000000000E+00 -0.61371877928E+02  0.61371877928E+02  0.25500000920E-02 0. -1.
       25    2    1    2    0    0 -0.19152883789E+03  0.40992223389E+02  0.22773271938E+04  0.22891499380E+04  0.12499853174E+03 0.  0.
        6    2    1    2  501    0  0.19152883789E+03 -0.40992223389E+02  0.25113821183E+03  0.36205922348E+03  0.17219994700E+03 0.  0.
       24    2    4    4    0    0  0.16234887586E+03  0.22011631034E+02  0.22304896412E+03  0.28701222693E+03  0.76049382766E+02 0.  0.
      -13    1    5    5    0    0  0.23266064558E+02 -0.24585074712E+02  0.38266898018E+02  0.51089160363E+02  0.10565999895E+00 0.  1.
       14    1    5    5    0    0  0.13908281130E+03  0.46596705747E+02  0.18478206610E+03  0.23592306657E+03  0.00000000000E+00 0. -1.
        5    1    4    4  501    0  0.29179962026E+02 -0.63003854424E+02  0.28089247711E+02  0.75046996551E+02  0.46999998093E+01 0. -1.
        5    1    3    3  502    0  0.10343508029E+01 -0.17523494745E+02  0.52205135702E+03  0.52236754504E+03  0.46999998093E+01 0. -1.
       -5    1    3    3    0  502 -0.19256318869E+03  0.58515718134E+02  0.17552758368E+04  0.17667823930E+04  0.46999998093E+01 0. -1.
</event>
<event>
10   0  0.1583500E-03  0.2264869E+03  0.7818609E-02  0.1138423E+00
       21   -1    0    0  501  503  0.00000000000E+00  0.00000000000E+00  0.35005022950E+03  0.35005022950E+03  0.00000000000E+00 0. -1.
        2   -1    0    0  503    0  0.00000000000E+00  0.00000000000E+00 -0.28518473584E+03  0.28518473585E+03  0.25500000920E-02 0.  1.
       25    2    1    2    0    0  0.11086934892E+03 -0.68474176444E+02 -0.21137996965E+03  0.27801249499E+03  0.12501492084E+03 0.  0.
        6    2    1    2  501    0 -0.11086934892E+03  0.68474176444E+02  0.27624546331E+03  0.35722247035E+03  0.18524473529E+03 0.  0.
       24    2    4    4    0    0 -0.54692937384E+02 -0.37342412041E+02  0.99198524300E+02  0.14339859838E+03  0.79605512739E+02 0.  0.
      -11    1    5    5    0    0  0.10795139363E+02 -0.18338158794E+02  0.62367363347E+02  0.65897732229E+02  0.51099999109E-03 0.  1.
       12    1    5    5    0    0 -0.65488076748E+02 -0.19004253247E+02  0.36831160953E+02  0.77500866155E+02  0.00000000000E+00 0. -1.
        5    1    4    4  501    0 -0.56176411532E+02  0.10581658849E+03  0.17704693901E+03  0.21382387197E+03  0.46999998093E+01 0. -1.
        5    1    3    3  502    0  0.61399573495E+02 -0.38312759080E+02 -0.20743636318E+03  0.21974919773E+03  0.46999998093E+01 0.  1.
       -5    1    3    3    0  502  0.49469775421E+02 -0.30161417364E+02 -0.39436064700E+01  0.58263297262E+02  0.46999998093E+01 0.  1.
</event>
<event>
10   0  0.1583500E-03  0.2047859E+03  0.7818609E-02  0.1154371E+00
       -2   -1    0    0    0  501  0.00000000000E+00  0.00000000000E+00  0.83000036268E+03  0.83000036269E+03  0.00000000000E+00 0. -1.
       21   -1    0    0  501  503  0.00000000000E+00  0.00000000000E+00 -0.17733318026E+03  0.17733318026E+03  0.25500000920E-02 0. -1.
       25    2    1    2    0    0  0.10495510928E+03  0.35377243456E+02  0.75860390721E+03  0.77676929418E+03  0.12499409599E+03 0.  0.
       -6    2    1    2    0  503 -0.10495510928E+03 -0.35377243456E+02 -0.10593672478E+03  0.23056424877E+03  0.17225027963E+03 0.  0.
      -24    2    4    4    0    0 -0.11366348060E+03 -0.63808491112E+02 -0.12313520304E+03  0.19589366719E+03  0.78874205272E+02 0.  0.
       11    1    5    5    0    0 -0.20015777088E+02 -0.10613342324E+02 -0.74226938399E+02  0.77607427170E+02  0.51099999109E-03 0. -1.
      -12    1    5    5    0    0 -0.93647703512E+02 -0.53195148788E+02 -0.48908264641E+02  0.11828624002E+03  0.00000000000E+00 0.  1.
       -5    1    4    4    0  503  0.87083713201E+01  0.28431247656E+02  0.17198478259E+02  0.34670581578E+02  0.46999998093E+01 0.  1.
        5    1    3    3  502    0 -0.28459033817E+02  0.79752880569E+01  0.16814373535E+03  0.17078620425E+03  0.46999998093E+01 0.  1.
       -5    1    3    3    0  502  0.13341414310E+03  0.27401955399E+02  0.59046017185E+03  0.60598308993E+03  0.46999998093E+01 0.  1.
</event>
<event>
10   0  0.1583500E-03  0.1761370E+03  0.7818609E-02  0.1185649E+00
        4   -1    0    0  503    0  0.00000000000E+00  0.00000000000E+00  0.15781849134E+03  0.15782360124E+03  0.00000000000E+00 0. -1.
       21   -1    0    0  501  503  0.00000000000E+00  0.00000000000E+00 -0.16757715843E+03  0.16757715843E+03  0.12699999809E+01 0. -1.
       25    2    1    2    0    0 -0.28161543249E+02  0.74046226944E+01  0.52407686104E+02  0.13861506676E+03  0.12497867904E+03 0.  0.
        6    2    1    2  501    0  0.28161543249E+02 -0.74046226944E+01 -0.62166353196E+02  0.18678569292E+03  0.17371338075E+03 0.  0.
       24    2    4    4    0    0 -0.50591525924E+02  0.11216016126E+02 -0.41931636711E+02  0.10323745629E+03  0.78831521046E+02 0.  0.
      -13    1    5    5    0    0 -0.29046962453E+01 -0.27337245490E+02 -0.30135481313E+02  0.40791183475E+02  0.10565999895E+00 0.  1.
       14    1    5    5    0    0 -0.47686829678E+02  0.38553261616E+02 -0.11796155398E+02  0.62446272813E+02  0.00000000000E+00 0. -1.
        5    1    4    4  501    0  0.78753069173E+02 -0.18620638820E+02 -0.20234716485E+02  0.83548236628E+02  0.46999998093E+01 0. -1.
        5    1    3    3  502    0 -0.32897170246E+01 -0.17862430992E+02 -0.37458179583E+02  0.41893840775E+02  0.46999998093E+01 0. -1.
       -5    1    3    3    0  502 -0.24871826224E+02  0.25267053686E+02  0.89865865687E+02  0.96721225983E+02  0.46999998093E+01 0. -1.
</event>
<event>
10   0  0.1583500E-03  0.2441741E+03  0.7818609E-02  0.1122413E+00
       21   -1    0    0  501  503  0.00000000000E+00  0.00000000000E+00  0.65183014890E+03  0.65183014890E+03  0.00000000000E+00 0.  1.
        2   -1    0    0  503    0  0.00000000000E+00  0.00000000000E+00 -0.13913264477E+03  0.13913264480E+03  0.25500000920E-02 0. -1.
       25    2    1    2    0    0  0.11671344971E+03 -0.12775881787E+03 -0.10356717045E+02  0.21372218640E+03  0.12500226593E+03 0.  0.
        6    2    1    2  501    0 -0.11671344971E+03  0.12775881787E+03  0.52305422117E+03  0.57724060729E+03  0.17226913691E+03 0.  0.
       24    2    4    4    0    0 -0.99453515428E+02  0.14483758686E+03  0.51670457009E+03  0.55170636070E+03  0.80792124554E+02 0.  0.
      -15    1    5    5    0    0 -0.16965872256E+02  0.12911262748E+02  0.14231590394E+02  0.25695085544E+02  0.17769999504E+01 0.  1.
       16    1    5    5    0    0 -0.82487643172E+02  0.13192632411E+03  0.50247297969E+03  0.52601127516E+03  0.00000000000E+00 0. -1.
        5    1    4    4  501    0 -0.17259934283E+02 -0.17078768993E+02  0.63496510842E+01  0.25534246589E+02  0.46999998093E+01 0. -1.
        5    1    3    3  502    0  0.11940514207E+03 -0.44158948469E+02 -0.21539842940E+02  0.12920392995E+03  0.46999998093E+01 0. -1.
       -5    1    3    3    0  502 -0.26916923579E+01 -0.83599869397E+02  0.11183125895E+02  0.84518256453E+02  0.46999998093E+01 0. -1.
</event>
<event>
10   0  0.1583500E-03  0.3718677E+03  0.7818609E-02  0.1055831E+00
        2   -1    0    0  503    0  0.00000000000E+00  0.00000000000E+00  0.14788542928E+04  0.14788542928E+04  0.00000000000E+00 0. -1.
       21   -1    0    0  501  503  0.00000000000E+00  0.00000000000E+00 -0.95621628440E+02  0.95621628440E+02  0.25500000920E-02 0.  1.
       25    2    1    2    0    0 -0.31040775984E+03  0.11213228812E+03  0.88492745260E+03  0.95270933425E+03  0.12502740413E+03 0.  0.
        6    2    1    2  501    0  0.31040775984E+03 -0.11213228812E+03  0.49830521173E+03  0.62176658697E+03  0.17134461539E+03 0.  0.
       24    2    4    4    0    0  0.71208597122E+02 -0.65089367292E+02  0.13444538268E+03  0.18376505610E+03  0.79917112573E+02 0.  0.
      -15    1    5    5    0    0  0.69129434010E+02 -0.12695331805E+02  0.58425284706E+02  0.91415106618E+02  0.17769999504E+01 0.  1.
       16    1    5    5    0    0  0.20791631115E+01 -0.52394035487E+02  0.76020097973E+02  0.92349949484E+02  0.00000000000E+00 0. -1.
        5    1    4    4  501    0  0.23919916272E+03 -0.47042920833E+02  0.36385982905E+03  0.43800153086E+03  0.46999998093E+01 0. -1.
        5    1    3    3  502    0 -0.10483662453E+02  0.12539767024E+02  0.17229531956E+03  0.17313266612E+03  0.46999998093E+01 0. -1.
       -5    1    3    3    0  502 -0.29992409739E+03  0.99592521101E+02  0.71263213304E+03  0.77957666813E+03  0.46999998093E+01 0. -1.
</event>
<event>
10   0  0.1583500E-03  0.1716024E+03  0.7818609E-02  0.1190339E+00
        2   -1    0    0  503    0  0.00000000000E+00  0.00000000000E+00  0.41896168677E+03  0.41896168678E+03  0.00000000000E+00 0.  1.
       21   -1    0    0  501  503  0.00000000000E+00  0.00000000000E+00 -0.15589485063E+03  0.15589485063E+03  0.25500000920E-02 0.  1.
       25    2    1    2    0    0 -0.89926993154E+00 -0.39946655583E+01  0.35766940136E+03  0.37890495745E+03  0.12499920031E+03 0.  0.
        6    2    1    2  501    0  0.89926993154E+00  0.39946655583E+01 -0.94602565213E+02  0.19595157996E+03  0.17155352023E+03 0.  0.
       24    2    4    4    0    0  0.44941657740E+02 -0.14931626082E+02 -0.11153591742E+03  0.14489509306E+03  0.79445711411E+02 0.  0.
      -11    1    5    5    0    0  0.18815221316E+02 -0.43341766824E+02 -0.33767761440E+02  0.58075666312E+02  0.51099999109E-03 0.  1.
       12    1    5    5    0    0  0.26126436423E+02  0.28410140743E+02 -0.77768155976E+02  0.86819426750E+02  0.00000000000E+00 0. -1.
        5    1    4    4  501    0 -0.44042387808E+02  0.18926291640E+02  0.16933352203E+02  0.51056486896E+02  0.46999998093E+01 0. -1.
        5    1    3    3  502    0  0.73037352823E+01 -0.22178034957E+02  0.35761835951E+03  0.35841064554E+03  0.46999998093E+01 0.  1.
       -5    1    3    3    0  502 -0.82030052138E+01  0.18183369398E+02  0.51041848683E-01  0.20494311911E+02  0.46999998093E+01 0.  1.
</event>
<event>
10   0  0.1583500E-03  0.2041831E+03  0.7818609E-02  0.1154600E+00
       21   -1    0    0  501  503  0.00000000000E+00  0.00000000000E+00  0.84453779398E+02  0.84453779398E+02  0.00000000000E+00 0.  1.
        2   -1    0    0  503    0  0.00000000000E+00  0.00000000000E+00 -0.12073089711E+04  0.12073089711E+04  0.25500000920E-02 0.  1.
       25    2    1    2    0    0 -0.11074699602E+03 -0.13863537564E+02 -0.10669964166E+04  0.10800768275E+04  0.12501002212E+03 0.  0.
        6    2    1    2  501    0  0.11074699602E+03  0.13863537564E+02 -0.55858775142E+02  0.21168592296E+03  0.17097845601E+03 0.  0.
       24    2    4    4    0    0  0.12286116434E+03 -0.20694141261E+02 -0.27370775982E+01  0.14699441666E+03  0.77953535843E+02 0.  0.
      -11    1    5    5    0    0  0.77579043360E+02 -0.23783432655E+02 -0.37921340161E+02  0.89566666106E+02  0.51099999109E-03 0.  1.
       12    1    5    5    0    0  0.45282120976E+02  0.30892913939E+01  0.35184262563E+02  0.57427750552E+02  0.00000000000E+00 0. -1.
        5    1    4    4  501    0 -0.12114168318E+02  0.34557678826E+02 -0.53121697544E+02  0.64691506305E+02  0.46999998093E+01 0. -1.
        5    1    3    3  502    0 -0.12212088863E+02  0.12889953406E+02 -0.66619221241E+03  0.66644537652E+03  0.46999998093E+01 0. -1.
       -5    1    3    3    0  502 -0.98534907155E+02 -0.26753490970E+02 -0.40080420415E+03  0.41363145102E+03  0.46999998093E+01 0. -1.
</event>
<event>
10   0  0.1583500E-03  0.1890613E+03  0.7818609E-02  0.1170193E+00
        2   -1    0    0  503    0  0.00000000000E+00  0.00000000000E+00  0.13187324460E+04  0.13187324460E+04  0.00000000000E+00 0.  1.
       21   -1    0    0  501  503  0.00000000000E+00  0.00000000000E+00 -0.34647300333E+02  0.34647300333E+02  0.25500000920E-02 0.  1.
       25    2    1    2    0    0  0.74586515988E+02  0.20952725182E+02  0.10085663913E+04  0.10192319283E+04  0.12500157171E+03 0.  0.
        6    2    1    2  501    0 -0.74586515988E+02 -0.20952725182E+02  0.27551875445E+03  0.33414781813E+03  0.17245873490E+03 0.  0.
       24    2    4    4    0    0 -0.53204290465E+02 -0.52278146226E+02  0.82384890723E+02  0.13726902067E+03  0.80571786124E+02 0.  0.
      -15    1    5    5    0    0 -0.47127859924E+02 -0.28940596342E+02  0.95085299687E+02  0.11001347755E+03  0.17769999504E+01 0.  1.
       16    1    5    5    0    0 -0.60764305411E+01 -0.23337549884E+02 -0.12700408964E+02  0.27255543117E+02  0.00000000000E+00 0. -1.
        5    1    4    4  501    0 -0.21382225523E+02  0.31325421044E+02  0.19313386373E+03  0.19687879746E+03  0.46999998093E+01 0. -1.
        5    1    3    3  502    0  0.49582336519E+02 -0.46261215063E+02  0.64925184831E+03  0.65280055197E+03  0.46999998093E+01 0. -1.
       -5    1    3    3    0  502  0.25004179470E+02  0.67213940245E+02  0.35931454295E+03  0.36643137629E+03  0.46999998093E+01 0. -1.
</event>
<event>
10   0  0.1583500E-03  0.1981210E+03  0.7818609E-02  0.1160754E+00
       21   -1    0    0  501  503  0.00000000000E+00  0.00000000000E+00  0.18426308054E+03  0.18426308054E+03  0.00000000000E+00 0.  1.
        2   -1    0    0  503    0  0.00000000000E+00  0.00000000000E+00 -0.39208843170E+03  0.39208843171E+03  0.25500000920E-02 0. -1.
       25    2    1    2    0    0  0.59473968499E+02 -0.77950678663E+02 -0.31376048431E+03  0.35168692754E+03  0.12499836900E+03 0.  0.
        6    2    1    2  501    0 -0.59473968499E+02  0.77950678663E+02  0.10593513315E+03  0.22466458472E+03  0.17215824684E+03 0.  0.
       24    2    4    4    0    0 -0.10027153619E+03  0.39706401206E+02  0.44123669721E+02  0.14117917702E+03  0.79709990143E+02 0.  0.
      -13    1    5    5    0    0 -0.74944578665E+02  0.24497176468E+02 -0.10039094840E+02  0.79483307150E+02  0.10565999895E+00 0.  1.
       14    1    5    5    0    0 -0.25326957526E+02  0.15209224738E+02  0.54162764561E+02  0.61695869874E+02  0.00000000000E+00 0. -1.
        5    1    4    4  501    0  0.40797567692E+02  0.38244277457E+02  0.61811463432E+02  0.83485407693E+02  0.46999998093E+01 0. -1.
        5    1    3    3  502    0  0.62172481497E+02  0.16221095363E+02 -0.13385334427E+03  0.14855083023E+03  0.46999998093E+01 0.  1.
       -5    1    3    3    0  502 -0.26985129974E+01 -0.94171774027E+02 -0.17990714004E+03  0.20313609731E+03  0.46999998093E+01 0.  1.
</event>
<event>
10   0  0.1583500E-03  0.1901974E+03  0.7818609E-02  0.1168649E+00
        4   -1    0    0  503    0  0.00000000000E+00  0.00000000000E+00  0.19409127586E+03  0.19409543082E+03  0.00000000000E+00 0. -1.
       21   -1    0    0  501  503  0.00000000000E+00  0.00000000000E+00 -0.15452302520E+03  0.15452302520E+03  0.12699999809E+01 0. -1.
       25    2    1    2    0    0  0.72181220788E+02  0.39443720097E+02  0.50963640973E+02  0.15807998095E+03  0.12500420787E+03 0.  0.
        6    2    1    2  501    0 -0.72181220788E+02 -0.39443720097E+02 -0.11395390311E+02  0.19053847507E+03  0.17149087402E+03 0.  0.
       24    2    4    4    0    0 -0.41281714242E+02 -0.91425351494E+02 -0.18936897266E+02  0.12941700722E+03  0.79544835485E+02 0.  0.
      -15    1    5    5    0    0  0.20428198206E+02 -0.45539058989E+02 -0.16065408780E+02  0.52463056179E+02  0.17769999504E+01 0.  1.
       16    1    5    5    0    0 -0.61709912448E+02 -0.45886292506E+02 -0.28714884865E+01  0.76953951038E+02  0.00000000000E+00 0. -1.
        5    1    4    4  501    0 -0.30899506546E+02  0.51981631398E+02  0.75415069546E+01  0.61121467856E+02  0.46999998093E+01 0. -1.
        5    1    3    3  502    0  0.68065568978E+02  0.53775123635E+01 -0.26370932609E+02  0.73344089090E+02  0.46999998093E+01 0. -1.
       -5    1    3    3    0  502  0.41156518098E+01  0.34066207733E+02  0.77334573583E+02  0.84735891855E+02  0.46999998093E+01 0. -1.
</event>
<event>
10   0  0.1583500E-03  0.2122474E+03  0.7818609E-02  0.1147414E+00
       21   -1    0    0  501  503  0.00000000000E+00  0.00000000000E+00  0.61836601782E+02  0.61836601782E+02  0.00000000000E+00 0.  1.
        2   -1    0    0  503    0  0.00000000000E+00  0.00000000000E+00 -0.68025933254E+03  0.68025933254E+03  0.25500000920E-02 0. -1.
       25    2    1    2    0    0 -0.86877893056E+02  0.89999383148E+02 -0.40095186457E+03  0.43821675440E+03  0.12499547538E+03 0.  0.
        6    2    1    2  501    0  0.86877893056E+02 -0.89999383148E+02 -0.21747086619E+03  0.30387917993E+03  0.17146813431E+03 0.  0.
       24    2    4    4    0    0  0.79316476459E+02 -0.88613282285E+01 -0.64237374620E+02  0.13026134699E+03  0.80448440921E+02 0.  0.
      -13    1    5    5    0    0 -0.61670217387E+01  0.21204107776E+02 -0.18224125546E+02  0.28631735184E+02  0.10565999895E+00 0.  1.
       14    1    5    5    0    0  0.85483498197E+02 -0.30065436004E+02 -0.46013249074E+02  0.10162961181E+03  0.00000000000E+00 0. -1.
        5    1    4    4  501    0  0.75614165971E+01 -0.81138054919E+02 -0.15323349157E+03  0.17361783293E+03  0.46999998093E+01 0. -1.
        5    1    3    3  502    0 -0.10538498741E+03  0.10521804420E+03 -0.36943439431E+03  0.39834745398E+03  0.46999998093E+01 0. -1.
       -5    1    3    3    0  502  0.18507094356E+02 -0.15218661054E+02 -0.31517470260E+02  0.39869300415E+02  0.46999998093E+01 0. -1.
</event>
<event>
10   0  0.1583500E-03  0.1928981E+03  0.7818609E-02  0.1164909E+00
       21   -1    0    0  501  503  0.00000000000E+00  0.00000000000E+00  0.35162851366E+02  0.35162851366E+02  0.00000000000E+00 0.  1.
        2   -1    0    0  503    0  0.00000000000E+00  0.00000000000E+00 -0.20649623640E+04  0.20649623640E+04  0.25500000920E-02 0.  1.
       25    2    1    2    0    0  0.31014747081E+02 -0.88612464961E+02 -0.17681946702E+04  0.17750917074E+04  0.12499637750E+03 0.  0.
        6    2    1    2  501    0 -0.31014747081E+02  0.88612464961E+02 -0.26160484246E+03  0.32503350802E+03  0.16850995298E+03 0.  0.
       24    2    4    4    0    0 -0.14121563118E+02  0.12452732857E+03 -0.22750952234E+03  0.27249934823E+03  0.82394404679E+02 0.  0.
      -11    1    5    5    0    0  0.31495496752E+02  0.25272859493E+02 -0.70126786860E+02  0.80922493647E+02  0.51099999109E-03 0.  1.
       12    1    5    5    0    0 -0.45617059869E+02  0.99254469079E+02 -0.15738273548E+03  0.19157685458E+03  0.00000000000E+00 0. -1.
        5    1    4    4  501    0 -0.16893183963E+02 -0.35914863610E+02 -0.34095320117E+02  0.52534159788E+02  0.46999998093E+01 0. -1.
        5    1    3    3  502    0 -0.27619721533E+02 -0.92963640787E+02 -0.11479680587E+04  0.11520667695E+04  0.46999998093E+01 0.  1.
       -5    1    3    3    0  502  0.58634468614E+02  0.43511758261E+01 -0.62022661149E+03  0.62302493790E+03  0.46999998093E+01 0.  1.
</event>
<event>
10   0  0.1583500E-03  0.1812474E+03  0.7818609E-02  0.1179555E+00
        2   -1    0    0  503    0  0.00000000000E+00  0.00000000000E+00  0.13718510612E+03  0.13718510614E+03  0.00000000000E+00 0.  1.
       21   -1    0    0  501  503  0.00000000000E+00  0.00000000000E+00 -0.19531926244E+03  0.19531926244E+03  0.25500000920E-02 0.  1.
       25    2    1    2    0    0 -0.49892180700E+02  0.10271922880E+02  0.17494465310E+02  0.13611109910E+03  0.12500173153E+03 0.  0.
        6    2    1    2  501    0  0.49892180700E+02 -0.10271922880E+02 -0.75628621634E+02  0.19639326948E+03  0.17394219095E+03 0.  0.
       24    2    4    4    0    0  0.36480951712E+02 -0.45090699595E+02 -0.10699998299E+03  0.14741918873E+03  0.83182869739E+02 0.  0.
      -13    1    5    5    0    0  0.42099123273E+02 -0.54489238226E+02 -0.40212398339E+02  0.79739961167E+02  0.10565999895E+00 0.  1.
       14    1    5    5    0    0 -0.56181715606E+01  0.93985386309E+01 -0.66787584646E+02  0.67679227559E+02  0.00000000000E+00 0. -1.
        5    1    4    4  501    0  0.13411228987E+02  0.34818776715E+02  0.31371361352E+02  0.48974080759E+02  0.46999998093E+01 0. -1.
        5    1    3    3  502    0  0.19542565217E+01  0.59421203287E+02  0.23858661438E+02  0.64234136115E+02  0.46999998093E+01 0.  1.
       -5    1    3    3    0  502 -0.51846437221E+02 -0.49149280407E+02 -0.63641961283E+01  0.71876962983E+02  0.46999998093E+01 0.  1.
</event>
<event>
10   0  0.1583500E-03  0.1760198E+03  0.7818609E-02  0.1185671E+00
       21   -1    0    0  501  503  0.00000000000E+00  0.00000000000E+00  0.14503706574E+03  0.14503706574E+03  0.00000000000E+00 0. -1.
        2   -1    0    0  503    0  0.00000000000E+00  0.00000000000E+00 -0.23451044514E+03  0.23451044515E+03  0.25500000920E-02 0. -1.
       25    2    1    2    0    0  0.13622294473E+02  0.26569179893E+02 -0.14615644592E+03  0.19462606371E+03  0.12500443898E+03 0.  0.
        6    2    1    2  501    0 -0.13622294473E+02 -0.26569179893E+02  0.56683066514E+02  0.18492144718E+03  0.17346896948E+03 0.  0.
       24    2    4    4    0    0  0.92103015666E+01  0.40023861685E+02 -0.18435578310E+01  0.93251297274E+02  0.83699860088E+02 0.  0.
      -11    1    5    5    0    0  0.34414747163E+02 -0.45359746356E+01  0.17060570053E+02  0.38678326476E+02  0.51099999109E-03 0.  1.
       12    1    5    5    0    0 -0.25204445596E+02  0.44559836320E+02 -0.18904127884E+02  0.54572970798E+02  0.00000000000E+00 0. -1.
        5    1    4    4  501    0 -0.22832596039E+02 -0.66593041578E+02  0.58526624345E+02  0.91670149906E+02  0.46999998093E+01 0. -1.
        5    1    3    3  502    0 -0.40312515375E+02  0.37171260884E+02 -0.22943162061E+02  0.59626170556E+02  0.46999998093E+01 0. -1.
       -5    1    3    3    0  502  0.53934809848E+02 -0.10602080991E+02 -0.12321328385E+03  0.13499989315E+03  0.46999998093E+01 0. -1.
</event>
<event>
10   0  0.1583500E-03  0.2232071E+03  0.7818609E-02  0.1137464E+00
        2   -1    0    0  503    0  0.00000000000E+00  0.00000000000E+00  0.38195219611E+03  0.38195219612E+03  0.00000000000E+00 0. -1.
       21   -1    0    0  501  503  0.00000000000E+00  0.00000000000E+00 -0.22109967002E+03  0.22109967002E+03  0.25500000920E-02 0.  1.
       25    2    1    2    0    0 -0.12423728463E+03  0.78902887794E+02  0.28757149223E+03  0.34638261532E+03  0.12499193755E+03 0.  0.
        6    2    1    2  501    0  0.12423728463E+03 -0.78902887794E+02 -0.12671896615E+03  0.25666925083E+03  0.16781191657E+03 0.  0.
       24    2    4    4    0    0  0.21814896525E+02 -0.78298678453E+02 -0.33871623888E+02  0.11834560998E+03  0.79068474995E+02 0.  0.
      -15    1    5    5    0    0  0.36876083765E+02 -0.84418797337E+01  0.28912324358E+01  0.37981940987E+02  0.17769999504E+01 0.  1.
       16    1    5    5    0    0 -0.15061187241E+02 -0.69856798719E+02 -0.36762856323E+02  0.80363668989E+02  0.00000000000E+00 0. -1.
        5    1    4    4  501    0  0.10242238811E+03 -0.60420934120E+00 -0.92847342261E+02  0.13832364085E+03  0.46999998093E+01 0. -1.
        5    1    3    3  502    0 -0.92098597007E+02 -0.14102719800E+02  0.11998290125E+03  0.15198363355E+03  0.46999998093E+01 0. -1.
       -5    1    3    3    0  502 -0.32138687626E+02  0.93005607594E+02  0.16758859098E+03  0.19439898177E+03  0.46999998093E+01 0. -1.
</event>
<event>
10   0  0.1583500E-03  0.2062946E+03  0.7818609E-02  0.1152946E+00
        4   -1    0    0  503    0  0.00000000000E+00  0.00000000000E+00  0.33948514463E+03  0.33948752013E+03  0.00000000000E+00 0. -1.
       21   -1    0    0  501  503  0.00000000000E+00  0.00000000000E+00 -0.21622404995E+03  0.21622404995E+03  0.12699999809E+01 0.  1.
       25    2    1    2    0    0 -0.10260250046E+03 -0.48875692291E+02  0.25866578115E+03  0.30894877941E+03  0.12500102225E+03 0.  0.
        6    2    1    2  501    0  0.10260250046E+03  0.48875692291E+02 -0.13540468647E+03  0.24676279067E+03  0.17216660345E+03 0.  0.
       24    2    4    4    0    0  0.11968137777E+03 -0.10044692950E+02 -0.98140729809E+02  0.17483232208E+03  0.80685872075E+02 0.  0.
      -15    1    5    5    0    0  0.48726848685E+02 -0.75574436238E+01 -0.90948553187E+02  0.10347085480E+03  0.17769999504E+01 0.  1.
       16    1    5    5    0    0  0.70954529090E+02 -0.24872493261E+01 -0.71921766219E+01  0.71361467278E+02  0.00000000000E+00 0. -1.
        5    1    4    4  501    0 -0.17078877318E+02  0.58920385241E+02 -0.37263956659E+02  0.71930468589E+02  0.46999998093E+01 0. -1.
        5    1    3    3  502    0 -0.25059680487E+02 -0.56286582651E+02  0.32749842027E+02  0.69934320070E+02  0.46999998093E+01 0. -1.
       -5    1    3    3    0  502 -0.77542819969E+02  0.74108903606E+01  0.22591593912E+03  0.23901445934E+03  0.46999998093E+01 0. -1.
</event>
<event>
10   0  0.1583500E-03  0.1813347E+03  0.7818609E-02  0.1178216E+00
       21   -1    0    0  501  503  0.00000000000E+00  0.00000000000E+00  0.10498845328E+03  0.10498845328E+03  0.00000000000E+00 0.  1.
        2   -1    0    0  503    0  0.00000000000E+00  0.00000000000E+00 -0.68837898544E+03  0.68837898545E+03  0.25500000920E-02 0. -1.
       25    2    1    2    0    0 -0.10841376410E+02 -0.59622326152E+02 -0.59563532447E+03  0.61161974835E+03  0.12499967838E+03 0.  0.
        6    2    1    2  501    0  0.10841376410E+02  0.59622326152E+02  0.12244792312E+02  0.18174769038E+03  0.17090913025E+03 0.  0.
       24    2    4    4    0    0 -0.25371520481E+02  0.72094367572E+02  0.54953000101E+02  0.12418896620E+03  0.81004661713E+02 0.  0.
      -13    1    5    5    0    0  0.74334237652E+01  0.32984992273E+02  0.63966434686E+02  0.72353171559E+02  0.10565999895E+00 0.  1.
       14    1    5    5    0    0 -0.32804944246E+02  0.39109375299E+02 -0.90134345854E+01  0.51835794643E+02  0.00000000000E+00 0. -1.
        5    1    4    4  501    0  0.36212896891E+02 -0.12472041420E+02 -0.42708207789E+02  0.57558724180E+02  0.46999998093E+01 0. -1.
        5    1    3    3  502    0 -0.50019740002E+02 -0.30457995651E+02 -0.50629041305E+03  0.50968788119E+03  0.46999998093E+01 0. -1.
       -5    1    3    3    0  502  0.39178363592E+02 -0.29164330501E+02 -0.89344911426E+02  0.10193186716E+03  0.46999998093E+01 0. -1.
</event>
<event>
10   0  0.1583500E-03  0.1722559E+03  0.7818609E-02  0.1189412E+00
        2   -1    0    0  503    0  0.00000000000E+00  0.00000000000E+00  0.26640268605E+04  0.26640268605E+04  0.00000000000E+00 0. -1.
       21   -1    0    0  501  503  0.00000000000E+00  0.00000000000E+00 -0.87099040356E+01  0.87099040356E+01  0.25500000920E-02 0. -1.
       25    2    1    2    0    0  0.16389685788E+01  0.17314153992E+02  0.13960001821E+04  0.14016935543E+04  0.12500338229E+03 0.  0.
        6    2    1    2  501    0 -0.16389685788E+01 -0.17314153992E+02  0.12593167743E+04  0.12710432102E+04  0.17137572161E+03 0.  0.
       24    2    4    4    0    0  0.56648871265E+02 -0.63983539094E+01  0.64575590224E+03  0.65460532954E+03  0.90870339682E+02 0.  0.
      -11    1    5    5    0    0  0.80162462299E+01 -0.40100931198E+02  0.15533145523E+03  0.16062442489E+03  0.51099999109E-03 0.  1.
       12    1    5    5    0    0  0.48632625036E+02  0.33702577289E+02  0.49042444701E+03  0.49398090465E+03  0.00000000000E+00 0. -1.
        5    1    4    4  501    0 -0.58287839844E+02 -0.10915800083E+02  0.61356087211E+03  0.61643788068E+03  0.46999998093E+01 0. -1.
        5    1    3    3  502    0 -0.60301510395E+01 -0.50960744241E+02  0.39831686432E+03  0.40163637108E+03  0.46999998093E+01 0. -1.
       -5    1    3    3    0  502  0.76691196183E+01  0.68274898233E+02  0.99768331775E+03  0.10000571832E+04  0.46999998093E+01 0. -1.
</event>
<event>
10   0  0.1583500E-03  0.1721774E+03  0.7818609E-02  0.1188202E+00
       21   -1    0    0  501  503  0.00000000000E+00  0.00000000000E+00  0.79349018219E+02  0.79349018219E+02  0.00000000000E+00 0.  1.
        2   -1    0    0  503    0  0.00000000000E+00  0.00000000000E+00 -0.92517714738E+03  0.92517714739E+03  0.25500000920E-02 0.  1.
       25    2    1    2    0    0  0.28879041323E+02  0.19790660282E+02 -0.82025129736E+03  0.83045944575E+03  0.12500012385E+03 0.  0.
        6    2    1    2  501    0 -0.28879041323E+02 -0.19790660282E+02 -0.25576831807E+02  0.17406671985E+03  0.16858048337E+03 0.  0.
       24    2    4    4    0    0 -0.59494240546E+02 -0.44677488242E+01 -0.66258029234E+02  0.12068946008E+03  0.81340604238E+02 0.  0.
      -11    1    5    5    0    0 -0.15510231439E+02  0.32395094210E+02 -0.41968828578E+01  0.36161073465E+02  0.51099999109E-03 0.  1.
       12    1    5    5    0    0 -0.43984009107E+02 -0.36862843034E+02 -0.62061146376E+02  0.84528386612E+02  0.00000000000E+00 0. -1.
        5    1    4    4  501    0  0.30615199224E+02 -0.15322911458E+02  0.40681197427E+02  0.53377259777E+02  0.46999998093E+01 0. -1.
        5    1    3    3  502    0 -0.27443845305E+02 -0.19035118868E+02 -0.56961418766E+03  0.57061187613E+03  0.46999998093E+01 0.  1.
       -5    1    3    3    0  502  0.56322886628E+02  0.38825779150E+02 -0.25063710970E+03  0.25984756963E+03  0.46999998093E+01 0.  1.
</event>
<event>
10   0  0.1583500E-03  0.3773079E+03  0.7818609E-02  0.1053713E+00
        2   -1    0    0  503    0  0.00000000000E+00  0.00000000000E+00  0.61848242556E+03  0.61848242557E+03  0.00000000000E+00 0.  1.
       21   -1    0    0  501  503  0.00000000000E+00  0.00000000000E+00 -0.13959651484E+04  0.13959651484E+04  0.25500000920E-02 0. -1.
       25    2    1    2    0    0  0.28352587847E+03 -0.18076640436E+03  0.53760600888E+03  0.64630299511E+03  0.12499569592E+03 0.  0.
        6    2    1    2  501    0 -0.28352587847E+03  0.18076640436E+03 -0.13150887317E+04  0.13681445789E+04  0.17116600032E+03 0.  0.
       24    2    4    4    0    0 -0.91957890239E+02  0.58880605619E+02 -0.68112786519E+03  0.69473317983E+03  0.82436903937E+02 0.  0.
      -11    1    5    5    0    0 -0.30948158465E+02  0.25449176657E+02 -0.78808386202E+02  0.88409336842E+02  0.51099999109E-03 0.  1.
       12    1    5    5    0    0 -0.61009731775E+02  0.33431428962E+02 -0.60231947899E+03  0.60632384299E+03  0.00000000000E+00 0. -1.
        5    1    4    4  501    0 -0.19156798823E+03  0.12188579874E+03 -0.63396086654E+03  0.67341139904E+03  0.46999998093E+01 0. -1.
        5    1    3    3  502    0  0.10268182206E+03 -0.12756639716E+03  0.31093070015E+03  0.35144947369E+03  0.46999998093E+01 0.  1.
       -5    1    3    3    0  502  0.18084405642E+03 -0.53200007197E+02  0.22667530873E+03  0.29485352142E+03  0.46999998093E+01 0.  1.
</event>
<event>
10   0  0.1583500E-03  0.2299842E+03  0.7818609E-02  0.1133055E+00
       21   -1    0    0  501  503  0.00000000000E+00  0.00000000000E+00  0.13319250017E+03  0.13319250017E+03  0.00000000000E+00 0. -1.
        2   -1    0    0  503    0  0.00000000000E+00  0.00000000000E+00 -0.17067609812E+04  0.17067609812E+04  0.25500000920E-02 0. -1.
       25    2    1    2    0    0  0.15067057459E+03  0.16879194418E+02 -0.15967571719E+04  0.16088031695E+04  0.12501057172E+03 0.  0.
        6    2    1    2  501    0 -0.15067057459E+03 -0.16879194418E+02  0.23188690870E+02  0.23115031183E+03  0.17293415517E+03 0.  0.
       24    2    4    4    0    0 -0.79049518218E+02  0.58140176637E+02  0.16258398974E+02  0.12709455421E+03  0.79117530950E+02 0.  0.
      -15    1    5    5    0    0 -0.70550185158E+02  0.63506879792E+02 -0.13306122174E+02  0.95867945753E+02  0.17769999504E+01 0.  1.
       16    1    5    5    0    0 -0.84993330601E+01 -0.53667031548E+01  0.29564521149E+02  0.31226608461E+02  0.00000000000E+00 0. -1.
        5    1    4    4  501    0 -0.71621056376E+02 -0.75019371055E+02  0.69302918954E+01  0.10405575762E+03  0.46999998093E+01 0. -1.
        5    1    3    3  502    0  0.48775730672E+02  0.24486470339E+02 -0.17504497412E+03  0.18341617184E+03  0.46999998093E+01 0. -1.
       -5    1    3    3    0  502  0.10189484392E+03 -0.76072759206E+01 -0.14217121978E+04  0.14253869977E+04  0.46999998093E+01 0. -1.
</event>
<event>
10   0  0.1583500E-03  0.1790090E+03  0.7818609E-02  0.1179966E+00
        2   -1    0    0  503    0  0.00000000000E+00  0.00000000000E+00  0.40321866920E+02  0.40321867000E+02  0.00000000000E+00 0. -1.
       21   -1    0    0  501  503  0.00000000000E+00  0.00000000000E+00 -0.10977431870E+04  0.10977431870E+04  0.25500000920E-02 0. -1.
       25    2    1    2    0    0 -0.47698161964E+02  0.37032504681E+02 -0.11936684782E+03  0.18308316220E+03  0.12499791545E+03 0.  0.
        6    2    1    2  501    0  0.47698161964E+02 -0.37032504681E+02 -0.93805447224E+03  0.95498189178E+03  0.16851617036E+03 0.  0.
       24    2    4    4    0    0 -0.42593544366E+01  0.37160453500E+02 -0.50319624541E+03  0.51076578897E+03  0.79222398229E+02 0.  0.
      -13    1    5    5    0    0  0.24871351689E+02 -0.31761681108E+01 -0.63621445028E+02  0.68384001127E+02  0.10565999895E+00 0.  1.
       14    1    5    5    0    0 -0.29130706126E+02  0.40336621611E+02 -0.43957480038E+03  0.44238178784E+03  0.00000000000E+00 0. -1.
        5    1    4    4  501    0  0.51957516400E+02 -0.74192958181E+02 -0.43485822683E+03  0.44421610281E+03  0.46999998093E+01 0. -1.
        5    1    3    3  502    0 -0.68884715552E+02  0.14596198015E+02 -0.13178359215E+03  0.14948965914E+03  0.46999998093E+01 0.  1.
       -5    1    3    3    0  502  0.21186553588E+02  0.22436306666E+02  0.12416744330E+02  0.33593503058E+02  0.46999998093E+01 0.  1.
</event>
<event>
10   0  0.1583500E-03  0.2121054E+03  0.7818609E-02  0.1147549E+00
        2   -1    0    0  503    0  0.00000000000E+00  0.00000000000E+00  0.27740808307E+02  0.27740808424E+02  0.00000000000E+00 0. -1.
       21   -1    0    0  501  503  0.00000000000E+00  0.00000000000E+00 -0.14279343840E+04  0.14279343840E+04  0.25500000920E-02 0. -1.
       25    2    1    2    0    0  0.10322366099E+03  0.70121259400E+02 -0.48315571399E+03  0.51442754712E+03  0.12499656822E+03 0.  0.
        6    2    1    2  501    0 -0.10322366099E+03 -0.70121259400E+02 -0.91703786166E+03  0.94124764526E+03  0.17151260822E+03 0.  0.
       24    2    4    4    0    0 -0.41049449267E+02 -0.87101541009E+02 -0.38009346605E+03  0.40042851048E+03  0.81241697058E+02 0.  0.
      -15    1    5    5    0    0 -0.39288747824E+01 -0.25212469798E+02 -0.18158327933E+02  0.31368571732E+02  0.17769999504E+01 0.  1.
       16    1    5    5    0    0 -0.37120574485E+02 -0.61889071211E+02 -0.36193513812E+03  0.36905993875E+03  0.00000000000E+00 0. -1.
        5    1    4    4  501    0 -0.62174211727E+02  0.16980281609E+02 -0.53694439561E+03  0.54081913478E+03  0.46999998093E+01 0. -1.
        5    1    3    3  502    0  0.11180287368E+03  0.73722721942E+02 -0.48557508980E+03  0.50372629485E+03  0.46999998093E+01 0. -1.
       -5    1    3    3    0  502 -0.85792126823E+01 -0.36014625416E+01  0.24193758068E+01  0.10701252272E+02  0.46999998093E+01 0. -1.
</event>
<event>
10   0  0.1583500E-03  0.1744319E+03  0.7818609E-02  0.1188098E+00
        2   -1    0    0  503    0  0.00000000000E+00  0.00000000000E+00  0.30562195859E+04  0.30562195859E+04  0.00000000000E+00 0.  1.
       21   -1    0    0  501  503  0.00000000000E+00  0.00000000000E+00 -0.13149360809E+02  0.13149360809E+02  0.25500000920E-02 0.  1.
       25    2    1    2    0    0  0.83676515085E+00  0.56878886888E+01  0.23940243434E+04  0.23972922776E+04  0.12499862014E+03 0.  0.
        6    2    1    2  501    0 -0.83676515085E+00 -0.56878886888E+01  0.64904588165E+03  0.67207666910E+03  0.17433714581E+03 0.  0.
       24    2    4    4    0    0 -0.69037595077E+02  0.12786989528E+01  0.46126315330E+03  0.47211584891E+03  0.73224678878E+02 0.  0.
      -15    1    5    5    0    0 -0.95249299350E+01  0.51778693863E+01  0.51733087288E+01  0.12143124543E+02  0.17769999504E+01 0.  1.
       16    1    5    5    0    0 -0.59512665142E+02 -0.38991704335E+01  0.45608984457E+03  0.45997272437E+03  0.00000000000E+00 0. -1.
        5    1    4    4  501    0  0.68200829927E+02 -0.69665876416E+01  0.18778272835E+03  0.19996082019E+03  0.46999998093E+01 0. -1.
        5    1    3    3  502    0  0.25931129124E+02  0.98585426915E+01  0.12529705261E+03  0.12841750547E+03  0.46999998093E+01 0. -1.
       -5    1    3    3    0  502 -0.25094363973E+02 -0.41706540027E+01  0.22687272908E+04  0.22688747721E+04  0.46999998093E+01 0. -1.
</event>
<event>
10   0  0.1583500E-03  0.1876547E+03  0.7818609E-02  0.1171244E+00
       21   -1    0    0  501  503  0.00000000000E+00  0.00000000000E+00  0.62762240337E+02  0.62762240337E+02  0.00000000000E+00 0.  1.
        2   -1    0    0  503    0  0.00000000000E+00  0.00000000000E+00 -0.16754279890E+04  0.16754279890E+04  0.25500000920E-02 0. -1.
       25    2    1    2    0    0 -0.26491415651E+02  0.72333364427E+02 -0.15232703711E+04  0.15303300883E+04  0.12499457985E+03 0.  0.
        6    2    1    2  501    0  0.26491415651E+02 -0.72333364427E+02 -0.89395377578E+02  0.20786014105E+03  0.17111514834E+03 0.  0.
       24    2    4    4    0    0  0.47508419118E+02 -0.36277596295E+02 -0.48844118581E+01  0.11348892629E+03  0.96347107018E+02 0.  0.
      -11    1    5    5    0    0  0.66842438059E+02 -0.44128912001E+02 -0.25598097849E+02  0.84086473429E+02  0.51099999109E-03 0.  1.
       12    1    5    5    0    0 -0.19334018942E+02  0.78513157053E+01  0.20713685991E+02  0.29402452858E+02  0.00000000000E+00 0. -1.
        5    1    4    4  501    0 -0.21017003466E+02 -0.36055768131E+02 -0.84510965719E+02  0.94371214760E+02  0.46999998093E+01 0. -1.
        5    1    3    3  502    0 -0.56725924271E+02  0.93583308889E+02 -0.11213802102E+04  0.11267170594E+04  0.46999998093E+01 0.  1.
       -5    1    3    3    0  502  0.30234508620E+02 -0.21249944462E+02 -0.40189016095E+03  0.40361302892E+03  0.46999998093E+01 0.  1.
</event>
<event>
10   0  0.1583500E-03  0.1856705E+03  0.7818609E-02  0.1174757E+00
       21   -1    0    0  501  503  0.00000000000E+00  0.00000000000E+00  0.69181423733E+02  0.69181423733E+02  0.00000000000E+00 0. -1.
        2   -1    0    0  503    0  0.00000000000E+00  0.00000000000E+00 -0.41880587745E+03  0.41880587746E+03  0.25500000920E-02 0. -1.
       25    2    1    2    0    0 -0.25138707423E+02 -0.57664471876E+02 -0.22292454447E+03  0.26320650618E+03  0.12500066575E+03 0.  0.
        6    2    1    2  501    0  0.25138707423E+02  0.57664471876E+02 -0.12669990925E+03  0.22478079502E+03  0.17468941833E+03 0.  0.
       24    2    4    4    0    0  0.30822246590E+01  0.88187743885E+02 -0.13443428589E+03  0.18605006889E+03  0.93570682529E+02 0.  0.
      -13    1    5    5    0    0 -0.19056803216E+02  0.46992151250E+01 -0.83501455407E+02  0.85777319792E+02  0.10565999895E+00 0.  1.
       14    1    5    5    0    0  0.22139027875E+02  0.83488528760E+02 -0.50932830487E+02  0.10027274910E+03  0.00000000000E+00 0. -1.
        5    1    4    4  501    0  0.22056482764E+02 -0.30523272009E+02  0.77343766468E+01  0.38730726128E+02  0.46999998093E+01 0. -1.
        5    1    3    3  502    0 -0.72701452007E+01 -0.61821020977E+02 -0.23337278610E+03  0.24157740154E+03  0.46999998093E+01 0.  1.
       -5    1    3    3    0  502 -0.17868562223E+02  0.41565491011E+01  0.10448241622E+02  0.21629104640E+02  0.46999998093E+01 0.  1.
</event>
<event>
10   0  0.1583500E-03  0.2624193E+03  0.7818609E-02  0.1110042E+00
       -2   -1    0    0    0  501  0.00000000000E+00  0.00000000000E+00  0.12951000296E+03  0.12951000298E+03  0.00000000000E+00 0.  1.
       21   -1    0    0  501  503  0.00000000000E+00  0.00000000000E+00 -0.64225252353E+03  0.64225252353E+03  0.25500000920E-02 0. -1.
       25    2    1    2    0    0 -0.17767889271E+03  0.89187666923E+02 -0.50463980106E+02  0.24019378400E+03  0.12498884647E+03 0.  0.
       -6    2    1    2    0  503  0.17767889271E+03 -0.89187666923E+02 -0.46227854047E+03  0.53156874251E+03  0.17128820798E+03 0.  0.
      -24    2    4    4    0    0  0.73886354395E+02 -0.68765851073E+02 -0.36750006508E+03  0.38945966128E+03  0.80215922949E+02 0.  0.
       11    1    5    5    0    0  0.13553264167E+02  0.22164173949E+01 -0.41344190159E+01  0.14342137097E+02  0.51099999109E-03 0. -1.
      -12    1    5    5    0    0  0.60333090228E+02 -0.70982268467E+02 -0.36336564606E+03  0.37511752418E+03  0.00000000000E+00 0.  1.
       -5    1    4    4    0  503  0.10379253831E+03 -0.20421815851E+02 -0.94778475390E+02  0.14210908123E+03  0.46999998093E+01 0.  1.
        5    1    3    3  502    0 -0.19396803381E+03  0.70416713312E+02 -0.56874640374E+02  0.21410027177E+03  0.46999998093E+01 0.  1.
       -5    1    3    3    0  502  0.16289141108E+02  0.18770953611E+02  0.64106602670E+01  0.26093512235E+02  0.46999998093E+01 0.  1.
</event>
<event>
10   0  0.1583500E-03  0.2013665E+03  0.7818609E-02  0.1157423E+00
        2   -1    0    0  503    0  0.00000000000E+00  0.00000000000E+00  0.13646561844E+04  0.13646561844E+04  0.00000000000E+00 0.  1.
       21   -1    0    0  501  503  0.00000000000E+00  0.00000000000E+00 -0.24392100347E+02  0.24392100347E+02  0.25500000920E-02 0.  1.
       25    2    1    2    0    0 -0.28349823081E+02  0.10156389005E+03  0.59980746257E+03  0.62169929618E+03  0.12498834539E+03 0.  0.
        6    2    1    2  501    0  0.28349823081E+02 -0.10156389005E+03  0.74045662144E+03  0.76734898853E+03  0.17155035917E+03 0.  0.
       24    2    4    4    0    0  0.14010305154E+02 -0.12147964283E+03  0.72044048208E+03  0.73533344830E+03  0.82019507992E+02 0.  0.
      -13    1    5    5    0    0 -0.31984541898E+02 -0.70610933165E+02  0.33619379798E+03  0.34501477616E+03  0.10565999895E+00 0.  1.
       14    1    5    5    0    0  0.45994847052E+02 -0.50868709663E+02  0.38424668410E+03  0.39031867214E+03  0.00000000000E+00 0. -1.
        5    1    4    4  501    0  0.14339517926E+02  0.19915752782E+02  0.20016139359E+02  0.32015540231E+02  0.46999998093E+01 0. -1.
        5    1    3    3  502    0  0.22167638557E+02  0.20114387544E+02  0.26007495666E+02  0.39930847905E+02  0.46999998093E+01 0. -1.
       -5    1    3    3    0  502 -0.50517461637E+02  0.81449502502E+02  0.57379996690E+03  0.58176844827E+03  0.46999998093E+01 0. -1.
</event>
<event>
10   0  0.1583500E-03  0.2885493E+03  0.7818609E-02  0.1094876E+00
       21   -1    0    0  501  503  0.00000000000E+00  0.00000000000E+00  0.34320032124E+02  0.34320032124E+02  0.00000000000E+00 0.  1.
        2   -1    0    0  503    0  0.00000000000E+00  0.00000000000E+00 -0.22101082205E+04  0.22101082205E+04  0.25500000920E-02 0. -1.
       25    2    1    2    0    0 -0.22601439467E+03  0.39860736613E+02 -0.10993447802E+04  0.11299817081E+04  0.12501331913E+03 0.  0.
        6    2    1    2  501    0  0.22601439467E+03 -0.39860736613E+02 -0.10764434082E+04  0.11144465445E+04  0.17489798364E+03 0.  0.
       24    2    4    4    0    0  0.10003263505E+03  0.45862508045E+02 -0.47419419527E+03  0.49320095470E+03  0.79228461886E+02 0.  0.
      -15    1    5    5    0    0  0.66505332083E+02  0.19347075063E+02 -0.13919096530E+03  0.15548167435E+03  0.17769999504E+01 0.  1.
       16    1    5    5    0    0  0.33527302962E+02  0.26515432981E+02 -0.33500322998E+03  0.33771928036E+03  0.00000000000E+00 0. -1.
        5    1    4    4  501    0  0.12598175963E+03 -0.85723244658E+02 -0.60224921292E+03  0.62124558984E+03  0.46999998093E+01 0. -1.
        5    1    3    3  502    0 -0.21191715839E+03  0.10119032649E+02 -0.10445558573E+04  0.10658941344E+04  0.46999998093E+01 0.  1.
       -5    1    3    3    0  502 -0.14097236283E+02  0.29741703964E+02 -0.54788922931E+02  0.64087573676E+02  0.46999998093E+01 0.  1.
</event>
<event>
10   0  0.1583500E-03  0.1917568E+03  0.7818609E-02  0.1167037E+00
       21   -1    0    0  501  503  0.00000000000E+00  0.00000000000E+00  0.31675344978E+02  0.31675344978E+02  0.00000000000E+00 0.  1.
        2   -1    0    0  503    0  0.00000000000E+00  0.00000000000E+00 -0.10665578961E+04  0.10665578961E+04  0.25500000920E-02 0.  1.
       25    2    1    2    0    0  0.66498609607E+02 -0.53966905180E+02 -0.65980999529E+03  0.67698497430E+03  0.12499973446E+03 0.  0.
        6    2    1    2  501    0 -0.66498609607E+02  0.53966905180E+02 -0.37507255583E+03  0.42124826677E+03  0.17156977645E+03 0.  0.
       24    2    4    4    0    0 -0.39072595735E+02 -0.16507238592E+02 -0.10216776674E+03  0.13802061085E+03  0.82536536117E+02 0.  0.
      -15    1    5    5    0    0  0.94757499244E+01  0.46070340772E+01  0.95899732334E+01  0.14357573439E+02  0.17769999504E+01 0.  1.
       16    1    5    5    0    0 -0.48548345659E+02 -0.21114272669E+02 -0.11175773997E+03  0.12366303741E+03  0.00000000000E+00 0. -1.
        5    1    4    4  501    0 -0.27426013872E+02  0.70474143772E+02 -0.27290478909E+03  0.28322765593E+03  0.46999998093E+01 0. -1.
        5    1    3    3  502    0  0.21591540229E+01 -0.73235109562E+02 -0.21693669315E+03  0.22902327840E+03  0.46999998093E+01 0. -1.
       -5    1    3    3    0  502  0.64339455584E+02  0.19268204382E+02 -0.44287330214E+03  0.44796169590E+03  0.46999998093E+01 0. -1.
</event>
<event>
10   0  0.1583500E-03  0.1867584E+03  0.7818609E-02  0.1172569E+00
        2   -1    0    0  503    0  0.00000000000E+00  0.00000000000E+00  0.81193411288E+03  0.81193411288E+03  0.00000000000E+00 0.  1.
       21   -1    0    0  501  503  0.00000000000E+00  0.00000000000E+00 -0.12364830779E+03  0.12364830779E+03  0.25500000920E-02 0.  1.
       25    2    1    2    0    0 -0.68321915452E+02 -0.24333427392E+02  0.73004546510E+03  0.74421219718E+03  0.12500165396E+03 0.  0.
        6    2    1    2  501    0  0.68321915452E+02  0.24333427392E+02 -0.41759660010E+02  0.19137022349E+03  0.17210082340E+03 0.  0.
       24    2    4    4    0    0  0.18416611059E+02  0.58722375903E+02 -0.75883407378E+02  0.12165896673E+03  0.72492231840E+02 0.  0.
      -11    1    5    5    0    0  0.22877687901E+00  0.56780861800E+02 -0.15924428106E+02  0.58972078277E+02  0.51099999109E-03 0.  1.
       12    1    5    5    0    0  0.18187834180E+02  0.19415141038E+01 -0.59958979272E+02  0.62686888458E+02  0.00000000000E+00 0. -1.
        5    1    4    4  501    0  0.49905304393E+02 -0.34388948512E+02  0.34123747368E+02  0.69711256759E+02  0.46999998093E+01 0. -1.
        5    1    3    3  502    0 -0.50275435513E+01  0.29908424814E+01 -0.28790809429E+01  0.80374397785E+01  0.46999998093E+01 0.  1.
       -5    1    3    3    0  502 -0.63294371900E+02 -0.27324269873E+02  0.73292454604E+03  0.73617475740E+03  0.46999998093E+01 0.  1.
</event>
<event>
10   0  0.1583500E-03  0.1799704E+03  0.7818609E-02  0.1179944E+00
        2   -1    0    0  503    0  0.00000000000E+00  0.00000000000E+00  0.28099400593E+03  0.28099400594E+03  0.00000000000E+00 0. -1.
       21   -1    0    0  501  503  0.00000000000E+00  0.00000000000E+00 -0.95464574575E+02  0.95464574575E+02  0.25500000920E-02 0. -1.
       25    2    1    2    0    0 -0.22049860504E+02 -0.50676249304E+02  0.12868636314E+03  0.18772467731E+03  0.12500438321E+03 0.  0.
        6    2    1    2  501    0  0.22049860504E+02  0.50676249304E+02  0.56843068211E+02  0.18873390320E+03  0.17127484702E+03 0.  0.
       24    2    4    4    0    0  0.63360671772E+02  0.10197222081E+02  0.78683846915E+02  0.12673193239E+03  0.75837173309E+02 0.  0.
      -11    1    5    5    0    0 -0.13893792700E+02  0.16753051215E+02  0.18935982945E+02  0.28849153384E+02  0.51099999109E-03 0.  1.
       12    1    5    5    0    0  0.77254464471E+02 -0.65558291339E+01  0.59747863970E+02  0.97882779003E+02  0.00000000000E+00 0. -1.
        5    1    4    4  501    0 -0.41310811268E+02  0.40479027223E+02 -0.21840778704E+02  0.62001970816E+02  0.46999998093E+01 0. -1.
        5    1    3    3  502    0 -0.39616086104E+02 -0.10355573195E+02 -0.97840569549E+01  0.42361420457E+02  0.46999998093E+01 0.  1.
       -5    1    3    3    0  502  0.17566225600E+02 -0.40320676109E+02  0.13847042010E+03  0.14536325686E+03  0.46999998093E+01 0.  1.
</event>
<event>
10   0  0.1583500E-03  0.1749500E+03  0.7818609E-02  0.1186414E+00
       21   -1    0    0  501  503  0.00000000000E+00  0.00000000000E+00  0.17455476567E+02  0.17455476567E+02  0.00000000000E+00 0.  1.
        2   -1    0    0  503    0  0.00000000000E+00  0.00000000000E+00 -0.21954504786E+04  0.21954504786E+04  0.25500000920E-02 0.  1.
       25    2    1    2    0    0 -0.79865535275E+01 -0.29813794690E+02 -0.16827452852E+04  0.16876633522E+04  0.12499299196E+03 0.  0.
        6    2    1    2  501    0  0.79865535275E+01  0.29813794690E+02 -0.49524971686E+03  0.52524260302E+03  0.17220587267E+03 0.  0.
       24    2    4    4    0    0  0.20997952046E+02  0.38126396894E+02 -0.12728483789E+03  0.15692393935E+03  0.80803197062E+02 0.  0.
      -13    1    5    5    0    0  0.66829650516E+01  0.62798720114E+02 -0.91066995714E+02  0.11082215547E+03  0.10565999895E+00 0.  1.
       14    1    5    5    0    0  0.14314986994E+02 -0.24672323220E+02 -0.36217842172E+02  0.46101783884E+02  0.00000000000E+00 0. -1.
        5    1    4    4  501    0 -0.13011398518E+02 -0.83126022042E+01 -0.36796487898E+03  0.36831866367E+03  0.46999998093E+01 0. -1.
        5    1    3    3  502    0  0.30498317911E+02 -0.61908016820E+02 -0.64507241208E+03  0.64877057329E+03  0.46999998093E+01 0.  1.
       -5    1    3    3    0  502 -0.38484871438E+02  0.32094222130E+02 -0.10376728731E+04  0.10388927789E+04  0.46999998093E+01 0.  1.
</event>
<event>
10   0  0.1583500E-03  0.2654722E+03  0.7818609E-02  0.1108414E+00
        2   -1    0    0  503    0  0.00000000000E+00  0.00000000000E+00  0.49746816308E+03  0.49746816309E+03  0.00000000000E+00 0. -1.
       21   -1    0    0  501  503  0.00000000000E+00  0.00000000000E+00 -0.17977502717E+03  0.17977502717E+03  0.25500000920E-02 0. -1.
       25    2    1    2    0    0 -0.55463929102E+02  0.19287450424E+03  0.33632502900E+03  0.41111796417E+03  0.12500653388E+03 0.  0.
        6    2    1    2  501    0  0.55463929102E+02 -0.19287450424E+03 -0.18631893082E+02  0.26612522609E+03  0.17377763580E+03 0.  0.
       24    2    4    4    0    0 -0.78176819214E+01 -0.93291408261E+02 -0.66117393140E+02  0.13885261312E+03  0.78384536030E+02 0.  0.
      -15    1    5    5    0    0 -0.29877991102E+02 -0.17979419076E+02 -0.46160509116E+02  0.57878356865E+02  0.17769999504E+01 0.  1.
       16    1    5    5    0    0  0.22060309181E+02 -0.75311989185E+02 -0.19956884024E+02  0.80974256255E+02  0.00000000000E+00 0. -1.
        5    1    4    4  501    0  0.63281611024E+02 -0.99583095978E+02  0.47485500058E+02  0.12727261297E+03  0.46999998093E+01 0. -1.
        5    1    3    3  502    0 -0.49153266970E+02  0.21098141340E+03  0.30945884444E+03  0.37777780090E+03  0.46999998093E+01 0. -1.
       -5    1    3    3    0  502 -0.63106621318E+01 -0.18106909157E+02  0.26866184554E+02  0.33340163263E+02  0.46999998093E+01 0. -1.
</event>
<event>
10   0  0.1583500E-03  0.1734514E+03  0.7818609E-02  0.1185826E+00
       21   -1    0    0  501  503  0.00000000000E+00  0.00000000000E+00  0.34647399997E+03  0.34647399997E+03  0.00000000000E+00 0. -1.
        2   -1    0    0  503    0  0.00000000000E+00  0.00000000000E+00 -0.85100195079E+03  0.85100195080E+03  0.25500000920E-02 0. -1.
       25    2    1    2    0    0 -0.30730515024E+02  0.36687849036E+02 -0.82354652144E+03  0.83435303307E+03  0.12500299193E+03 0.  0.
        6    2    1    2  501    0  0.30730515024E+02 -0.36687849036E+02  0.31901857062E+03  0.36312291769E+03  0.16671845169E+03 0.  0.
       24    2    4    4    0    0  0.15508118216E+02 -0.80481753597E+02  0.27917928473E+03  0.30181316203E+03  0.80201604477E+02 0.  0.
      -13    1    5    5    0    0 -0.23664280988E+01  0.11517979006E+02  0.64105247976E+01  0.13392901648E+02  0.10565999895E+00 0.  1.
       14    1    5    5    0    0  0.17874546314E+02 -0.91999732603E+02  0.27276875993E+03  0.28842026038E+03  0.00000000000E+00 0. -1.
        5    1    4    4  501    0  0.15222396808E+02  0.43793904561E+02  0.39839285893E+02  0.61309755667E+02  0.46999998093E+01 0. -1.
        5    1    3    3  502    0  0.49749782239E+01  0.28376809908E+02 -0.37902847938E+02  0.47840460166E+02  0.46999998093E+01 0.  1.
       -5    1    3    3    0  502 -0.35705493248E+02  0.83110391283E+01 -0.78564367350E+03  0.78651257290E+03  0.46999998093E+01 0.  1.
</event>
<event>
10   0  0.1583500E-03  0.1840400E+03  0.7818609E-02  0.1174826E+00
       21   -1    0    0  501  503  0.00000000000E+00  0.00000000000E+00  0.64201805467E+02  0.64201805467E+02  0.00000000000E+00 0.  1.
        2   -1    0    0  503    0  0.00000000000E+00  0.00000000000E+00 -0.67976126383E+03  0.67976126384E+03  0.25500000920E-02 0. -1.
       25    2    1    2    0    0  0.65716019392E+02  0.25241148530E+02 -0.51423743151E+03  0.53387527864E+03  0.12500786532E+03 0.  0.
        6    2    1    2  501    0 -0.65716019392E+02 -0.25241148530E+02 -0.10132202686E+03  0.21008779067E+03  0.17004415861E+03 0.  0.
       24    2    4    4    0    0 -0.10451159716E+03 -0.43280825988E+02 -0.93187524496E+02  0.16628383030E+03  0.78552489842E+02 0.  0.
      -15    1    5    5    0    0  0.69345446176E+00 -0.26968052519E+02 -0.37231987378E+02  0.46012339092E+02  0.17769999504E+01 0.  1.
       16    1    5    5    0    0 -0.10520505162E+03 -0.16312773469E+02 -0.55955537118E+02  0.12027149121E+03  0.00000000000E+00 0. -1.
        5    1    4    4  501    0  0.38795577763E+02  0.18039677457E+02 -0.81345023616E+01  0.43803960365E+02  0.46999998093E+01 0. -1.
        5    1    3    3  502    0  0.86190998572E+02  0.42408366850E+02 -0.24385094118E+03  0.26213113002E+03  0.46999998093E+01 0.  1.
       -5    1    3    3    0  502 -0.20474979180E+02 -0.17167218320E+02 -0.27038649032E+03  0.27174414861E+03  0.46999998093E+01 0.  1.
</event>
<event>
10   0  0.1583500E-03  0.1878846E+03  0.7818609E-02  0.1171221E+00
       -4   -1    0    0    0  501  0.00000000000E+00  0.00000000000E+00  0.11525040433E+03  0.11525740149E+03  0.00000000000E+00 0. -1.
       21   -1    0    0  501  503  0.00000000000E+00  0.00000000000E+00 -0.31469018002E+03  0.31469018002E+03  0.12699999809E+01 0. -1.
       25    2    1    2    0    0  0.38864578226E+02 -0.65499676824E+02  0.12285505769E+02  0.14687833332E+03  0.12498659145E+03 0.  0.
       -6    2    1    2    0  503 -0.38864578226E+02  0.65499676824E+02 -0.21172528145E+03  0.28306924819E+03  0.17175546966E+03 0.  0.
      -24    2    4    4    0    0 -0.57688723276E+02  0.96778088957E+02 -0.20429286876E+03  0.24551903835E+03  0.76485519339E+02 0.  0.
       11    1    5    5    0    0 -0.43819738327E+02  0.89056270563E+02 -0.20686007885E+03  0.22943905730E+03  0.51099999109E-03 0. -1.
      -12    1    5    5    0    0 -0.13868984949E+02  0.77218183947E+01  0.25672100866E+01  0.16079981047E+02  0.00000000000E+00 0.  1.
       -5    1    4    4    0  503  0.18824145050E+02 -0.31278412134E+02 -0.74324126908E+01  0.37550209841E+02  0.46999998093E+01 0.  1.
        5    1    3    3  502    0 -0.12378677949E+02 -0.88436247086E+02  0.14012346423E+02  0.90513188635E+02  0.46999998093E+01 0.  1.
       -5    1    3    3    0  502  0.51243256175E+02  0.22936570262E+02 -0.17268406535E+01  0.56365144687E+02  0.46999998093E+01 0.  1.
</event>
<event>
10   0  0.1583500E-03  0.2173311E+03  0.7818609E-02  0.1143090E+00
        2   -1    0    0  503    0  0.00000000000E+00  0.00000000000E+00  0.63817696706E+03  0.63817696706E+03  0.00000000000E+00 0. -1.
       21   -1    0    0  501  503  0.00000000000E+00  0.00000000000E+00 -0.99799630965E+02  0.99799630965E+02  0.25500000920E-02 0. -1.
       25    2    1    2    0    0 -0.99668344032E+02 -0.88381319380E+02  0.47905786448E+03  0.51269540448E+03  0.12496040907E+03 0.  0.
        6    2    1    2  501    0  0.99668344032E+02  0.88381319380E+02  0.59319471612E+02  0.22528119355E+03  0.17172006300E+03 0.  0.
       24    2    4    4    0    0  0.14260946047E+02  0.46763812268E+02  0.92637866862E+02  0.12449108496E+03  0.67275754461E+02 0.  0.
      -15    1    5    5    0    0  0.39100742975E+02  0.15994217689E+02  0.58927735975E+02  0.72528055927E+02  0.17769999504E+01 0.  1.
       16    1    5    5    0    0 -0.24839796928E+02  0.30769594579E+02  0.33710130887E+02  0.51963029034E+02  0.00000000000E+00 0. -1.
        5    1    4    4  501    0  0.85407397985E+02  0.41617507111E+02 -0.33318395249E+02  0.10079010859E+03  0.46999998093E+01 0. -1.
        5    1    3    3  502    0 -0.52509186705E+02 -0.66906457951E+02  0.10580074797E+03  0.13582922025E+03  0.46999998093E+01 0. -1.
       -5    1    3    3    0  502 -0.47159157327E+02 -0.21474861429E+02  0.37325711651E+03  0.37686618423E+03  0.46999998093E+01 0. -1.
</event>
<event>
10   0  0.1583500E-03  0.6946237E+03  0.7818609E-02  0.9730813E-01
       21   -1    0    0  501  503  0.00000000000E+00  0.00000000000E+00  0.28286854893E+03  0.28286854893E+03  0.00000000000E+00 0. -1.
        2   -1    0    0  503    0  0.00000000000E+00  0.00000000000E+00 -0.17723089075E+04  0.17723089075E+04  0.25500000920E-02 0.  1.
       25    2    1    2    0    0  0.54861803552E+03  0.39003575055E+03 -0.97243073271E+03  0.11892669499E+04  0.12499885011E+03 0.  0.
        6    2    1    2  501    0 -0.54861803552E+03 -0.39003575055E+03 -0.51700962587E+03  0.86591050656E+03  0.17144216671E+03 0.  0.
       24    2    4    4    0    0 -0.16869678114E+03 -0.77354336280E+02 -0.16512916374E+03  0.26097102530E+03  0.79974608606E+02 0.  0.
      -15    1    5    5    0    0 -0.12824799985E+03 -0.53079973697E+02 -0.71529849174E+02  0.15615604415E+03  0.17769999504E+01 0.  1.
       16    1    5    5    0    0 -0.40448781292E+02 -0.24274362583E+02 -0.93599314567E+02  0.10481498115E+03  0.00000000000E+00 0. -1.
        5    1    4    4  501    0 -0.37992125438E+03 -0.31268141427E+03 -0.35188046213E+03  0.60493948126E+03  0.46999998093E+01 0. -1.
        5    1    3    3  502    0  0.97279218275E+02  0.26090222574E+02 -0.19389960033E+03  0.21854768594E+03  0.46999998093E+01 0.  1.
       -5    1    3    3    0  502  0.45133881725E+03  0.36394552797E+03 -0.77853113237E+03  0.97071926393E+03  0.46999998093E+01 0.  1.
</event>
<event>
10   0  0.1583500E-03  0.2248017E+03  0.7818609E-02  0.1137239E+00
       21   -1    0    0  501  503  0.00000000000E+00  0.00000000000E+00  0.65647700382E+02  0.65647700382E+02  0.00000000000E+00 0. -1.
       -2   -1    0    0    0  501  0.00000000000E+00  0.00000000000E+00 -0.66368527877E+03  0.66368527877E+03  0.25500000920E-02 0.  1.
       25    2    1    2    0    0 -0.11933025300E+03  0.79062922310E+02 -0.31493754953E+03  0.36783409375E+03  0.12500242178E+03 0.  0.
       -6    2    1    2    0  503  0.11933025300E+03 -0.79062922310E+02 -0.28310002885E+03  0.36149888541E+03  0.17333540564E+03 0.  0.
      -24    2    4    4    0    0  0.11160590507E+03 -0.10785693536E+03 -0.28106972240E+03  0.33125036675E+03  0.81471590556E+02 0.  0.
       11    1    5    5    0    0 -0.96412133082E+01 -0.10882960220E+02 -0.67222062939E+01  0.16018110841E+02  0.51099999109E-03 0. -1.
      -12    1    5    5    0    0  0.12124711837E+03 -0.96973975142E+02 -0.27434751611E+03  0.31523225590E+03  0.00000000000E+00 0.  1.
       -5    1    4    4    0  503  0.77243479374E+01  0.28794013052E+02 -0.20303064535E+01  0.30248518661E+02  0.46999998093E+01 0.  1.
        5    1    3    3  502    0 -0.14311960608E+03  0.79340010654E+02 -0.29020947768E+03  0.33319917447E+03  0.46999998093E+01 0. -1.
       -5    1    3    3    0  502  0.23789353073E+02 -0.27708834459E+00 -0.24728071848E+02  0.34634919274E+02  0.46999998093E+01 0. -1.
</event>
<event>
10   0  0.1583500E-03  0.2146991E+03  0.7818609E-02  0.1145404E+00
       21   -1    0    0  501  503  0.00000000000E+00  0.00000000000E+00  0.73681063120E+02  0.73681063120E+02  0.00000000000E+00 0.  1.
        2   -1    0    0  503    0  0.00000000000E+00  0.00000000000E+00 -0.14159270747E+04  0.14159270747E+04  0.25500000920E-02 0. -1.
       25    2    1    2    0    0 -0.79284069157E+02  0.10106782463E+03 -0.12380564384E+04  0.12509636824E+04  0.12500288470E+03 0.  0.
        6    2    1    2  501    0  0.79284069157E+02 -0.10106782463E+03 -0.10418957322E+03  0.23864445548E+03  0.17203209051E+03 0.  0.
       24    2    4    4    0    0  0.11408621432E+03 -0.10253092884E+03 -0.10702904510E+03  0.20338140710E+03  0.79878185976E+02 0.  0.
      -13    1    5    5    0    0  0.63479294848E+02 -0.65572375940E+02 -0.15677838548E+02  0.92602176791E+02  0.10565999895E+00 0.  1.
       14    1    5    5    0    0  0.50606919472E+02 -0.36958552897E+02 -0.91351206548E+02  0.11077923031E+03  0.00000000000E+00 0. -1.
        5    1    4    4  501    0 -0.34802145163E+02  0.14631042031E+01  0.28394718771E+01  0.35263048374E+02  0.46999998093E+01 0. -1.
        5    1    3    3  502    0 -0.22198081132E+02  0.11561357529E+03 -0.72439001767E+03  0.73390887806E+03  0.46999998093E+01 0.  1.
       -5    1    3    3    0  502 -0.57085988025E+02 -0.14545750656E+02 -0.51366642074E+03  0.51705480434E+03  0.46999998093E+01 0.  1.
</event>
<event>
10   0  0.1583500E-03  0.2272065E+03  0.7818609E-02  0.1135007E+00
       21   -1    0    0  501  503  0.00000000000E+00  0.00000000000E+00  0.68712684265E+03  0.68712684265E+03  0.00000000000E+00 0.  1.
        2   -1    0    0  503    0  0.00000000000E+00  0.00000000000E+00 -0.83497699402E+02  0.83497699441E+02  0.25500000920E-02 0. -1.
       25    2    1    2    0    0  0.14562339179E+03 -0.30537146070E+02  0.10095634561E+03  0.21898811644E+03  0.12499968759E+03 0.  0.
        6    2    1    2  501    0 -0.14562339179E+03  0.30537146070E+02  0.50267279764E+03  0.55163642565E+03  0.17170939138E+03 0.  0.
       24    2    4    4    0    0 -0.11538207438E+03  0.58366789884E+02  0.48212213816E+03  0.50544718494E+03  0.79469462129E+02 0.  0.
      -13    1    5    5    0    0 -0.50488131759E+02  0.31849524376E+01  0.81932551595E+02  0.96292001461E+02  0.10565999895E+00 0.  1.
       14    1    5    5    0    0 -0.64893942619E+02  0.55181837446E+02  0.40018958657E+03  0.40915518348E+03  0.00000000000E+00 0. -1.
        5    1    4    4  501    0 -0.30241317416E+02 -0.27829643814E+02  0.20550659479E+02  0.46189240707E+02  0.46999998093E+01 0. -1.
        5    1    3    3  502    0  0.14244483909E+03 -0.44735420628E+02  0.12207536159E+03  0.19291519885E+03  0.46999998093E+01 0. -1.
       -5    1    3    3    0  502  0.31785527046E+01  0.14198274558E+02 -0.21119015980E+02  0.26072917595E+02  0.46999998093E+01 0. -1.
</event>
<event>
10   0  0.1583500E-03  0.1941599E+03  0.7818609E-02  0.1164755E+00
        2   -1    0    0  503    0  0.00000000000E+00  0.00000000000E+00  0.32517583647E+04  0.32517583647E+04  0.00000000000E+00 0. -1.
       21   -1    0    0  501  503  0.00000000000E+00  0.00000000000E+00 -0.95602867515E+01  0.95602867515E+01  0.25500000920E-02 0.  1.
       25    2    1    2    0    0 -0.39567261699E+02 -0.80489753552E+02  0.16998321952E+04  0.17067799533E+04  0.12499659339E+03 0.  0.
        6    2    1    2  501    0  0.39567261699E+02  0.80489753552E+02  0.15423658828E+04  0.15545386982E+04  0.17220301772E+03 0.  0.
       24    2    4    4    0    0  0.84313559257E+02  0.18533667101E+02  0.83866674542E+03  0.84668606264E+03  0.77865947029E+02 0.  0.
      -11    1    5    5    0    0  0.36528752087E+02  0.30444279469E+02  0.17981405436E+03  0.18599542475E+03  0.51099999109E-03 0.  1.
       12    1    5    5    0    0  0.47784807171E+02 -0.11910612369E+02  0.65885269106E+03  0.66069063789E+03  0.00000000000E+00 0. -1.
        5    1    4    4  501    0 -0.44746297558E+02  0.61956086451E+02  0.70369913736E+03  0.70785263559E+03  0.46999998093E+01 0. -1.
        5    1    3    3  502    0  0.14836567620E+02  0.23492952975E+02  0.60717983534E+03  0.60783343526E+03  0.46999998093E+01 0.  1.
       -5    1    3    3    0  502 -0.54403829318E+02 -0.10398270653E+03  0.10926523599E+04  0.10989465180E+04  0.46999998093E+01 0.  1.
</event>
<event>
10   0  0.1583500E-03  0.1939370E+03  0.7818609E-02  0.1164800E+00
       21   -1    0    0  501  503  0.00000000000E+00  0.00000000000E+00  0.28318583529E+02  0.28318583529E+02  0.00000000000E+00 0. -1.
        2   -1    0    0  503    0  0.00000000000E+00  0.00000000000E+00 -0.29636895855E+04  0.29636895855E+04  0.25500000920E-02 0. -1.
       25    2    1    2    0    0  0.71507312263E+02 -0.55186047760E+02 -0.26002269587E+04  0.26047962087E+04  0.12499702556E+03 0.  0.
        6    2    1    2  501    0 -0.71507312263E+02  0.55186047760E+02 -0.33514404332E+03  0.38721196040E+03  0.17161811365E+03 0.  0.
       24    2    4    4    0    0 -0.33516984640E+02 -0.37328439622E+02 -0.16752995135E+03  0.19197167462E+03  0.79183575270E+02 0.  0.
      -15    1    5    5    0    0 -0.27102990960E+02 -0.50779844527E+02 -0.16744294066E+03  0.17706908492E+03  0.17769999504E+01 0.  1.
       16    1    5    5    0    0 -0.64139936809E+01  0.13451404904E+02 -0.87010690130E-01  0.14902589698E+02  0.00000000000E+00 0. -1.
        5    1    4    4  501    0 -0.37990327623E+02  0.92514487382E+02 -0.16761409197E+03  0.19524028578E+03  0.46999998093E+01 0. -1.
        5    1    3    3  502    0  0.69154284611E+01  0.38974197486E+02 -0.63753866060E+03  0.63878356661E+03  0.46999998093E+01 0.  1.
       -5    1    3    3    0  502  0.64591883802E+02 -0.94160245246E+02 -0.19626882981E+04  0.19660126421E+04  0.46999998093E+01 0.  1.
</event>
<event>
10   0  0.1583500E-03  0.2653883E+03  0.7818609E-02  0.1108796E+00
        2   -1    0    0  503    0  0.00000000000E+00  0.00000000000E+00  0.25872224528E+04  0.25872224528E+04  0.00000000000E+00 0. -1.
       21   -1    0    0  501  503  0.00000000000E+00  0.00000000000E+00 -0.39743307315E+02  0.39743307315E+02  0.25500000920E-02 0.  1.
       25    2    1    2    0    0 -0.17477307019E+03  0.93591292588E+02  0.20479387132E+04  0.20613054330E+04  0.12498863577E+03 0.  0.
        6    2    1    2  501    0  0.17477307019E+03 -0.93591292588E+02  0.49954043233E+03  0.56566032713E+03  0.17642563888E+03 0.  0.
       24    2    4    4    0    0  0.91462765736E+02 -0.76625915966E+02  0.16156381798E+03  0.21712236267E+03  0.82475963626E+02 0.  0.
      -11    1    5    5    0    0  0.36310612714E+02 -0.70830598934E+02  0.13235381638E+03  0.15444405800E+03  0.51099999109E-03 0.  1.
       12    1    5    5    0    0  0.55152153022E+02 -0.57953170322E+01  0.29210001602E+02  0.62678304668E+02  0.00000000000E+00 0. -1.
        5    1    4    4  501    0  0.83310304457E+02 -0.16965376622E+02  0.33797661434E+03  0.34853796447E+03  0.46999998093E+01 0. -1.
        5    1    3    3  502    0 -0.14921645140E+03  0.10879933926E+03  0.13337182323E+04  0.13464506151E+04  0.46999998093E+01 0.  1.
       -5    1    3    3    0  502 -0.25556618797E+02 -0.15208046677E+02  0.71422048087E+03  0.71485481795E+03  0.46999998093E+01 0.  1.
</event>
<event>
10   0  0.1583500E-03  0.1755181E+03  0.7818609E-02  0.1186319E+00
       21   -1    0    0  501  503  0.00000000000E+00  0.00000000000E+00  0.40362653778E+02  0.40362653778E+02  0.00000000000E+00 0. -1.
       -4   -1    0    0    0  501  0.00000000000E+00  0.00000000000E+00 -0.63694516924E+03  0.63694643536E+03  0.12699999809E+01 0. -1.
       25    2    1    2    0    0  0.26246336277E+02  0.31193059611E+01 -0.36507897932E+03  0.38679145869E+03  0.12500548441E+03 0.  0.
       -6    2    1    2    0  503 -0.26246336277E+02 -0.31193059611E+01 -0.23150353614E+03  0.29051763045E+03  0.17351658745E+03 0.  0.
      -24    2    4    4    0    0 -0.66473771878E+02  0.34754869040E+02 -0.19557870941E+03  0.22444658626E+03  0.80613741006E+02 0.  0.
       11    1    5    5    0    0 -0.21058872472E+02 -0.16593187878E+02 -0.13762019270E+02  0.30136409348E+02  0.51099999109E-03 0. -1.
      -12    1    5    5    0    0 -0.45414899405E+02  0.51348056918E+02 -0.18181669014E+03  0.19431017691E+03  0.00000000000E+00 0.  1.
       -5    1    4    4    0  503  0.40227435601E+02 -0.37874175001E+02 -0.35924826731E+02  0.66071044193E+02  0.46999998093E+01 0.  1.
        5    1    3    3  502    0  0.39415912879E+02 -0.53984544166E+02 -0.16033308448E+03  0.17377207248E+03  0.46999998093E+01 0.  1.
       -5    1    3    3    0  502 -0.13169576602E+02  0.57103850127E+02 -0.20474589484E+03  0.21301938621E+03  0.46999998093E+01 0.  1.
</event>
<event>
10   0  0.1583500E-03  0.1931554E+03  0.7818609E-02  0.1165606E+00
        2   -1    0    0  503    0  0.00000000000E+00  0.00000000000E+00  0.55364450712E+03  0.55364450712E+03  0.00000000000E+00 0.  1.
       21   -1    0    0  501  503  0.00000000000E+00  0.00000000000E+00 -0.40111045773E+03  0.40111045773E+03  0.25500000920E-02 0. -1.
       25    2    1    2    0    0 -0.15998976488E+02  0.87159476098E+02  0.51865078535E+03  0.54080997436E+03  0.12499619872E+03 0.  0.
        6    2    1    2  501    0  0.15998976488E+02 -0.87159476098E+02 -0.36611673597E+03  0.41394499050E+03  0.17162822985E+03 0.  0.
       24    2    4    4    0    0  0.28038425046E+02 -0.31057203324E+02 -0.33802423332E+03  0.34988492466E+03  0.80052326843E+02 0.  0.
      -11    1    5    5    0    0  0.43481643259E+02  0.66605824445E+01 -0.11417982366E+03  0.12236032360E+03  0.51099999109E-03 0.  1.
       12    1    5    5    0    0 -0.15443218214E+02 -0.37717785769E+02 -0.22384440966E+03  0.22752460106E+03  0.00000000000E+00 0. -1.
        5    1    4    4  501    0 -0.12039448557E+02 -0.56102272774E+02 -0.28092502642E+02  0.64060065836E+02  0.46999998093E+01 0. -1.
        5    1    3    3  502    0  0.42483806821E+02 -0.48086195327E+01  0.17774694867E+03  0.18287718399E+03  0.46999998093E+01 0.  1.
       -5    1    3    3    0  502 -0.58482783309E+02  0.91968095631E+02  0.34090383668E+03  0.35793279037E+03  0.46999998093E+01 0.  1.
</event>
<event>
10   0  0.1583500E-03  0.1966236E+03  0.7818609E-02  0.1161418E+00
       21   -1    0    0  501  503  0.00000000000E+00  0.00000000000E+00  0.20566760722E+03  0.20566760722E+03  0.00000000000E+00 0.  1.
        2   -1    0    0  503    0  0.00000000000E+00  0.00000000000E+00 -0.25079849758E+03  0.25079849759E+03  0.25500000920E-02 0.  1.
       25    2    1    2    0    0  0.23769624986E+02  0.97057459214E+02 -0.16201324601E+03  0.22772540905E+03  0.12500169832E+03 0.  0.
        6    2    1    2  501    0 -0.23769624986E+02 -0.97057459214E+02  0.11688235565E+03  0.22874069577E+03  0.16933893639E+03 0.  0.
       24    2    4    4    0    0  0.32936241385E+02 -0.18329093982E+02  0.95491017108E+02  0.12927517342E+03  0.78567069643E+02 0.  0.
      -15    1    5    5    0    0 -0.14628283853E+02  0.12162933898E+02  0.58999071162E+02  0.62015899383E+02  0.17769999504E+01 0.  1.
       16    1    5    5    0    0  0.47564525238E+02 -0.30492027880E+02  0.36491945947E+02  0.67259274040E+02  0.00000000000E+00 0. -1.
        5    1    4    4  501    0 -0.56705866370E+02 -0.78728365231E+02  0.21391338542E+02  0.99465522346E+02  0.46999998093E+01 0. -1.
        5    1    3    3  502    0  0.82641829988E-01  0.95354788490E+02 -0.40299740206E+02  0.10362770661E+03  0.46999998093E+01 0. -1.
       -5    1    3    3    0  502  0.23686983156E+02  0.17026707238E+01 -0.12171350580E+03  0.12409770244E+03  0.46999998093E+01 0. -1.
</event>
<event>
10   0  0.1583500E-03  0.1896511E+03  0.7818609E-02  0.1169346E+00
        2   -1    0    0  503    0  0.00000000000E+00  0.00000000000E+00  0.12303054189E+04  0.12303054189E+04  0.00000000000E+00 0. -1.
       21   -1    0    0  501  503  0.00000000000E+00  0.00000000000E+00 -0.93276987399E+02  0.93276987399E+02  0.25500000920E-02 0. -1.
       25    2    1    2    0    0  0.28918025161E+02  0.74843863760E+02  0.11236866003E+04  0.11334626388E+04  0.12501248676E+03 0.  0.
        6    2    1    2  501    0 -0.28918025161E+02 -0.74843863760E+02  0.13341831231E+02  0.19011976748E+03  0.17184197801E+03 0.  0.
       24    2    4    4    0    0  0.42233574930E+01  0.14423118570E+02 -0.34807011521E+02  0.83314587670E+02  0.74188471947E+02 0.  0.
      -11    1    5    5    0    0  0.99377247692E+01  0.42170393663E+02 -0.75056394242E+01  0.43970843735E+02  0.51099999109E-03 0.  1.
       12    1    5    5    0    0 -0.57143672761E+01 -0.27747275093E+02 -0.27301372097E+02  0.39343743935E+02  0.00000000000E+00 0. -1.
        5    1    4    4  501    0 -0.33141382654E+02 -0.89266982330E+02  0.48148842752E+02  0.10680517981E+03  0.46999998093E+01 0. -1.
        5    1    3    3  502    0 -0.33737456729E+02  0.67191989029E+02  0.80726750845E+03  0.81077487601E+03  0.46999998093E+01 0. -1.
       -5    1    3    3    0  502  0.62655481890E+02  0.76518747309E+01  0.31641909184E+03  0.32268776283E+03  0.46999998093E+01 0. -1.
</event>
<event>
10   0  0.1583500E-03  0.1807168E+03  0.7818609E-02  0.1179392E+00
        4   -1    0    0  503    0  0.00000000000E+00  0.00000000000E+00  0.18101611221E+03  0.18102056728E+03  0.00000000000E+00 0.  1.
       21   -1    0    0  501  503  0.00000000000E+00  0.00000000000E+00 -0.37613117162E+03  0.37613117162E+03  0.12699999809E+01 0.  1.
       25    2    1    2    0    0  0.27441889683E+02  0.47990885806E+02  0.12779297605E+03  0.18711370322E+03  0.12499724307E+03 0.  0.
        6    2    1    2  501    0 -0.27441889683E+02 -0.47990885806E+02 -0.32290803547E+03  0.37003803568E+03  0.17205338140E+03 0.  0.
       24    2    4    4    0    0 -0.75191257872E+01 -0.71160608518E+02 -0.32250105657E+03  0.33911865338E+03  0.76643069638E+02 0.  0.
      -11    1    5    5    0    0 -0.27997284873E+02 -0.42870132278E+02 -0.86274457600E+02  0.10032436512E+03  0.51099999109E-03 0.  1.
       12    1    5    5    0    0  0.20478159085E+02 -0.28290476240E+02 -0.23622659897E+03  0.23879428826E+03  0.00000000000E+00 0. -1.
        5    1    4    4  501    0 -0.19922763896E+02  0.23169722711E+02 -0.40697889597E+00  0.30919382300E+02  0.46999998093E+01 0. -1.
        5    1    3    3  502    0  0.67913106149E+02  0.41008578320E+01  0.10012515095E+03  0.12114513145E+03  0.46999998093E+01 0. -1.
       -5    1    3    3    0  502 -0.40471216466E+02  0.43890027974E+02  0.27667825098E+02  0.65968571772E+02  0.46999998093E+01 0. -1.
</event>
<event>
10   0  0.1583500E-03  0.2120770E+03  0.7818609E-02  0.1147757E+00
       21   -1    0    0  501  503  0.00000000000E+00  0.00000000000E+00  0.21886776067E+03  0.21886776067E+03  0.00000000000E+00 0. -1.
        2   -1    0    0  503    0  0.00000000000E+00  0.00000000000E+00 -0.20407607541E+03  0.20407607543E+03  0.25500000920E-02 0.  1.
       25    2    1    2    0    0 -0.71617820180E+02  0.10078596567E+03 -0.76883787396E+02  0.19190048705E+03  0.12501102800E+03 0.  0.
        6    2    1    2  501    0  0.71617820180E+02 -0.10078596567E+03  0.91675472654E+02  0.23104334905E+03  0.17230703354E+03 0.  0.
       24    2    4    4    0    0  0.64768264658E+02  0.66869720324E+01  0.23424244293E+02  0.10345938093E+03  0.76912317477E+02 0.  0.
      -13    1    5    5    0    0 -0.15807918740E+02  0.12258283953E+02  0.46745564420E+01  0.20543087945E+02  0.10565999895E+00 0.  1.
       14    1    5    5    0    0  0.80576183399E+02 -0.55713119203E+01  0.18749687851E+02  0.82916292983E+02  0.00000000000E+00 0. -1.
        5    1    4    4  501    0  0.68495555221E+01 -0.10747293770E+03  0.68251228361E+02  0.12758396812E+03  0.46999998093E+01 0. -1.
        5    1    3    3  502    0 -0.14873372238E+01  0.20268998784E+02  0.32724727085E+02  0.38807760110E+02  0.46999998093E+01 0.  1.
       -5    1    3    3    0  502 -0.70130482957E+02  0.80516966887E+02 -0.10960851448E+03  0.15309272694E+03  0.46999998093E+01 0.  1.
</event>
<event>
10   0  0.1583500E-03  0.1817603E+03  0.7818609E-02  0.1178868E+00
        2   -1    0    0  503    0  0.00000000000E+00  0.00000000000E+00  0.23026490218E+04  0.23026490218E+04  0.00000000000E+00 0.  1.
       21   -1    0    0  501  503  0.00000000000E+00  0.00000000000E+00 -0.41029128664E+02  0.41029128664E+02  0.25500000920E-02 0.  1.
       25    2    1    2    0    0 -0.32713945109E+02 -0.42194966229E+02  0.20876766128E+04  0.20920970245E+04  0.12500281048E+03 0.  0.
        6    2    1    2  501    0  0.32713945109E+02  0.42194966229E+02  0.17394328032E+03  0.25158112602E+03  0.17374170720E+03 0.  0.
       24    2    4    4    0    0 -0.44813686910E+02  0.87676826068E+01  0.54844044941E+02  0.10551732187E+03  0.77723208605E+02 0.  0.
      -11    1    5    5    0    0  0.15799241099E+02  0.10602612833E+02  0.38132666304E+02  0.42616096230E+02  0.51099999109E-03 0.  1.
       12    1    5    5    0    0 -0.60612928009E+02 -0.18349302259E+01  0.16711378637E+02  0.62901225637E+02  0.00000000000E+00 0. -1.
        5    1    4    4  501    0  0.77527632018E+02  0.33427283622E+02  0.11909923538E+03  0.14606380415E+03  0.46999998093E+01 0. -1.
        5    1    3    3  502    0 -0.69349595160E+02 -0.58775315556E+02  0.16647958798E+04  0.16672826141E+04  0.46999998093E+01 0. -1.
       -5    1    3    3    0  502  0.36635650051E+02  0.16580349328E+02  0.42288073306E+03  0.42481441034E+03  0.46999998093E+01 0. -1.
</event>
<event>
10   0  0.1583500E-03  0.2067389E+03  0.7818609E-02  0.1152825E+00
       21   -1    0    0  501  503  0.00000000000E+00  0.00000000000E+00  0.14236824639E+03  0.14236824639E+03  0.00000000000E+00 0. -1.
        2   -1    0    0  503    0  0.00000000000E+00  0.00000000000E+00 -0.84549139100E+03  0.84549139101E+03  0.25500000920E-02 0.  1.
       25    2    1    2    0    0 -0.16293679229E+02 -0.11155645637E+03 -0.75596073218E+03  0.77447555868E+03  0.12500174179E+03 0.  0.
        6    2    1    2  501    0  0.16293679229E+02  0.11155645637E+03  0.52837587573E+02  0.21338407872E+03  0.17329347203E+03 0.  0.
       24    2    4    4    0    0  0.19932359076E+02  0.13452843639E+03  0.17961019093E+01  0.15709664571E+03  0.78618897063E+02 0.  0.
      -13    1    5    5    0    0 -0.27242880913E+02  0.22965295675E+02  0.46644619256E+01  0.35935327116E+02  0.10565999895E+00 0.  1.
       14    1    5    5    0    0  0.47175239989E+02  0.11156314072E+03 -0.28683600163E+01  0.12116131860E+03  0.00000000000E+00 0. -1.
        5    1    4    4  501    0 -0.36386798471E+01 -0.22971980024E+02  0.51041485664E+02  0.56287433005E+02  0.46999998093E+01 0. -1.
        5    1    3    3  502    0 -0.48410848921E+02 -0.42037971417E+01 -0.34691896432E+03  0.35033718045E+03  0.46999998093E+01 0.  1.
       -5    1    3    3    0  502  0.32117169692E+02 -0.10735265923E+03 -0.40904176786E+03  0.42413837823E+03  0.46999998093E+01 0.  1.
</event>
<event>
10   0  0.1583500E-03  0.2235174E+03  0.7818609E-02  0.1138075E+00
       21   -1    0    0  501  503  0.00000000000E+00  0.00000000000E+00  0.24721012957E+02  0.24721012957E+02  0.00000000000E+00 0.  1.
        2   -1    0    0  503    0  0.00000000000E+00  0.00000000000E+00 -0.18070095903E+04  0.18070095903E+04  0.25500000920E-02 0.  1.
       25    2    1    2    0    0 -0.27763928405E+02 -0.13964010946E+03 -0.62625168125E+03  0.65428363998E+03  0.12500286951E+03 0.  0.
        6    2    1    2  501    0  0.27763928405E+02  0.13964010946E+03 -0.11560368961E+04  0.11774469632E+04  0.17230742967E+03 0.  0.
       24    2    4    4    0    0  0.49386591794E+02  0.16488597452E+03 -0.97773268301E+03  0.99600998889E+03  0.80301173692E+02 0.  0.
      -11    1    5    5    0    0 -0.22442458745E+02  0.39178084118E+02 -0.23145715636E+03  0.23581984959E+03  0.51099999109E-03 0.  1.
       12    1    5    5    0    0  0.71829050539E+02  0.12570789040E+03 -0.74627552664E+03  0.76019013929E+03  0.00000000000E+00 0. -1.
        5    1    4    4  501    0 -0.21622663389E+02 -0.25245865064E+02 -0.17830421304E+03  0.18143697435E+03  0.46999998093E+01 0. -1.
        5    1    3    3  502    0 -0.72771447490E+02 -0.11772318643E+03 -0.48326153299E+03  0.50271088257E+03  0.46999998093E+01 0.  1.
       -5    1    3    3    0  502  0.45007519085E+02 -0.21916923025E+02 -0.14299014826E+03  0.15157275740E+03  0.46999998093E+01 0.  1.
</event>
<event>
10   0  0.1583500E-03  0.1983227E+03  0.7818609E-02  0.1160658E+00
       21   -1    0    0  501  503  0.00000000000E+00  0.00000000000E+00  0.62738895850E+02  0.62738895850E+02  0.00000000000E+00 0.  1.
        2   -1    0    0  503    0  0.00000000000E+00  0.00000000000E+00 -0.65094154433E+03  0.65094154433E+03  0.25500000920E-02 0. -1.
       25    2    1    2    0    0 -0.28221567963E+02  0.93677327721E+02 -0.43505448678E+03  0.46310855805E+03  0.12500092578E+03 0.  0.
        6    2    1    2  501    0  0.28221567963E+02 -0.93677327721E+02 -0.15314816170E+03  0.25057188213E+03  0.17251089837E+03 0.  0.
       24    2    4    4    0    0  0.86296994681E+02 -0.73702158865E+02 -0.10282354448E+03  0.17103308873E+03  0.76160728915E+02 0.  0.
      -13    1    5    5    0    0  0.52961834105E+02 -0.41920806992E+02 -0.11175993598E+02  0.68463303510E+02  0.10565999895E+00 0.  1.
       14    1    5    5    0    0  0.33335160577E+02 -0.31781351873E+02 -0.91647550879E+02  0.10256978522E+03  0.00000000000E+00 0. -1.
        5    1    4    4  501    0 -0.58075426718E+02 -0.19975168857E+02 -0.50324617220E+02  0.79538793402E+02  0.46999998093E+01 0. -1.
        5    1    3    3  502    0 -0.54979855794E+02  0.83455295410E+01 -0.26608944180E+03  0.27187885802E+03  0.46999998093E+01 0.  1.
       -5    1    3    3    0  502  0.26758287830E+02  0.85331798180E+02 -0.16896504498E+03  0.19122970003E+03  0.46999998093E+01 0.  1.
</event>
<event>
10   0  0.1583500E-03  0.2225061E+03  0.7818609E-02  0.1138839E+00
        4   -1    0    0  503    0  0.00000000000E+00  0.00000000000E+00  0.12411923621E+04  0.12411930119E+04  0.00000000000E+00 0.  1.
       21   -1    0    0  501  503  0.00000000000E+00  0.00000000000E+00 -0.48465992370E+02  0.48465992370E+02  0.12699999809E+01 0. -1.
       25    2    1    2    0    0  0.13783974777E+03  0.30382435587E+02  0.91282229065E+03  0.93209044920E+03  0.12500073090E+03 0.  0.
        6    2    1    2  501    0 -0.13783974777E+03 -0.30382435587E+02  0.27990407912E+03  0.35756855505E+03  0.17200607429E+03 0.  0.
       24    2    4    4    0    0 -0.80567391170E+02  0.25637761439E+02  0.24423035686E+03  0.26974435700E+03  0.77234393811E+02 0.  0.
      -13    1    5    5    0    0 -0.11373733993E+02  0.72002127374E+01 -0.17298018184E+01  0.13572334611E+02  0.10565999895E+00 0.  1.
       14    1    5    5    0    0 -0.69193657176E+02  0.18437548702E+02  0.24596015868E+03  0.25617202239E+03  0.00000000000E+00 0. -1.
        5    1    4    4  501    0 -0.57272356603E+02 -0.56020197026E+02  0.35673722262E+02  0.87824198054E+02  0.46999998093E+01 0. -1.
        5    1    3    3  502    0  0.15857657894E+03  0.10589784892E+02  0.74574767762E+03  0.76250925476E+03  0.46999998093E+01 0. -1.
       -5    1    3    3    0  502 -0.20736831163E+02  0.19792650695E+02  0.16707461303E+03  0.16958119444E+03  0.46999998093E+01 0. -1.
</event>
<event>
10   0  0.1583500E-03  0.1798276E+03  0.7818609E-02  0.1181482E+00
        2   -1    0    0  503    0  0.00000000000E+00  0.00000000000E+00  0.69187522067E+03  0.69187522067E+03  0.00000000000E+00 0.  1.
       21   -1    0    0  501  503  0.00000000000E+00  0.00000000000E+00 -0.72237040735E+02  0.72237040735E+02  0.25500000920E-02 0.  1.
       25    2    1    2    0    0 -0.22587946168E+02 -0.37153669893E+02  0.55881917071E+03  0.57427833053E+03  0.12500449937E+03 0.  0.
        6    2    1    2  501    0  0.22587946168E+02  0.37153669893E+02  0.60819009222E+02  0.18983393088E+03  0.17449171594E+03 0.  0.
       24    2    4    4    0    0  0.15928433315E+02  0.90334996696E+02  0.24530682959E+02  0.12493758851E+03  0.81200492609E+02 0.  0.
      -11    1    5    5    0    0 -0.32080921476E+01  0.11278231880E+02 -0.26456332671E+02  0.28938346674E+02  0.51099999109E-03 0.  1.
       12    1    5    5    0    0  0.19136525463E+02  0.79056764816E+02  0.50987015630E+02  0.95999241835E+02  0.00000000000E+00 0. -1.
        5    1    4    4  501    0  0.66595128531E+01 -0.53181326803E+02  0.36288326263E+02  0.64896342371E+02  0.46999998093E+01 0. -1.
        5    1    3    3  502    0 -0.71316816124E+02 -0.29909753817E+02  0.25685443485E+03  0.26828524435E+03  0.46999998093E+01 0.  1.
       -5    1    3    3    0  502  0.48728869956E+02 -0.72439160765E+01  0.30196473586E+03  0.30599308618E+03  0.46999998093E+01 0.  1.
</event>
<event>
10   0  0.1583500E-03  0.1792844E+03  0.7818609E-02  0.1181047E+00
        2   -1    0    0  503    0  0.00000000000E+00  0.00000000000E+00  0.55393032486E+02  0.55393032545E+02  0.00000000000E+00 0. -1.
       21   -1    0    0  501  503  0.00000000000E+00  0.00000000000E+00 -0.10019573793E+04  0.10019573793E+04  0.25500000920E-02 0. -1.
       25    2    1    2    0    0 -0.99107447024E+01  0.49658317109E+02 -0.51272424961E+02  0.14428386803E+03  0.12499920677E+03 0.  0.
        6    2    1    2  501    0  0.99107447024E+01 -0.49658317109E+02 -0.89529192184E+03  0.91306654380E+03  0.17198464113E+03 0.  0.
       24    2    4    4    0    0 -0.10641654538E+01  0.39779385082E+02 -0.50033147948E+03  0.50793027999E+03  0.77961837144E+02 0.  0.
      -15    1    5    5    0    0 -0.25889083737E+02  0.10245109828E+02 -0.63010748299E+02  0.68910950234E+02  0.17769999504E+01 0.  1.
       16    1    5    5    0    0  0.24824918283E+02  0.29534275254E+02 -0.43732073118E+03  0.43901932976E+03  0.00000000000E+00 0. -1.
        5    1    4    4  501    0  0.10974910156E+02 -0.89437702191E+02 -0.39496044236E+03  0.40513626381E+03  0.46999998093E+01 0. -1.
        5    1    3    3  502    0  0.51328457076E+02 -0.23846820765E+01 -0.34449200133E+02  0.62041394266E+02  0.46999998093E+01 0. -1.
       -5    1    3    3    0  502 -0.61239201779E+02  0.52042999185E+02 -0.16823224828E+02  0.82242473762E+02  0.46999998093E+01 0. -1.
</event>
<event>
10   0  0.1583500E-03  0.1828172E+03  0.7818609E-02  0.1177375E+00
        2   -1    0    0  503    0  0.00000000000E+00  0.00000000000E+00  0.39563434455E+03  0.39563434456E+03  0.00000000000E+00 0.  1.
       21   -1    0    0  501  503  0.00000000000E+00  0.00000000000E+00 -0.87816245924E+02  0.87816245924E+02  0.25500000920E-02 0.  1.
       25    2    1    2    0    0  0.21913433771E+02 -0.54605899509E+02  0.26008649336E+03  0.29450502594E+03  0.12500489362E+03 0.  0.
        6    2    1    2  501    0 -0.21913433771E+02  0.54605899509E+02  0.47731605266E+02  0.18894556455E+03  0.17308991126E+03 0.  0.
       24    2    4    4    0    0 -0.73606523649E+02 -0.21563628627E+01  0.23854174743E+02  0.10840767498E+03  0.75898828164E+02 0.  0.
      -15    1    5    5    0    0 -0.34518273592E+02  0.35732204010E+02  0.20201487976E+01  0.49754802232E+02  0.17769999504E+01 0.  1.
       16    1    5    5    0    0 -0.39088250057E+02 -0.37888566872E+02  0.21834025945E+02  0.58652872744E+02  0.00000000000E+00 0. -1.
        5    1    4    4  501    0  0.51693089878E+02  0.56762262371E+02  0.23877430523E+02  0.80537889575E+02  0.46999998093E+01 0. -1.
        5    1    3    3  502    0 -0.17421517027E+02 -0.56732921069E+02  0.24488961352E+03  0.25202211490E+03  0.46999998093E+01 0. -1.
       -5    1    3    3    0  502  0.39334950798E+02  0.21270215606E+01  0.15196879842E+02  0.42482911037E+02  0.46999998093E+01 0. -1.
</event>
<event>
10   0  0.1583500E-03  0.1744473E+03  0.7818609E-02  0.1187302E+00
        2   -1    0    0  503    0  0.00000000000E+00  0.00000000000E+00  0.46527889085E+03  0.46527889086E+03  0.00000000000E+00 0. -1.
       21   -1    0    0  501  503  0.00000000000E+00  0.00000000000E+00 -0.49083083370E+02  0.49083083370E+02  0.25500000920E-02 0. -1.
       25    2    1    2    0    0 -0.20391676186E+02  0.13116320690E+02  0.18983045776E+03  0.22857687444E+03  0.12499570596E+03 0.  0.
        6    2    1    2  501    0  0.20391676186E+02 -0.13116320690E+02  0.22636534972E+03  0.28578509979E+03  0.17275414143E+03 0.  0.
       24    2    4    4    0    0 -0.17062203358E+02  0.51921338896E+02  0.14969833954E+03  0.17839510628E+03  0.80176535643E+02 0.  0.
      -15    1    5    5    0    0  0.16637572608E+01  0.18393909628E+02 -0.48249432912E+01  0.19171379872E+02  0.17769999504E+01 0.  1.
       16    1    5    5    0    0 -0.18725960619E+02  0.33527429268E+02  0.15452328283E+03  0.15922372641E+03  0.00000000000E+00 0. -1.
        5    1    4    4  501    0  0.37453879544E+02 -0.65037659586E+02  0.76667010181E+02  0.10738999351E+03  0.46999998093E+01 0. -1.
        5    1    3    3  502    0 -0.31085272425E+01 -0.33403153035E+02  0.16600913657E+01  0.33915770312E+02  0.46999998093E+01 0.  1.
       -5    1    3    3    0  502 -0.17283148944E+02  0.46519473725E+02  0.18817036640E+03  0.19466110413E+03  0.46999998093E+01 0.  1.
</event>
<event>
10   0  0.1583500E-03  0.2186402E+03  0.7818609E-02  0.1141865E+00
       21   -1    0    0  501  503  0.00000000000E+00  0.00000000000E+00  0.20612327188E+03  0.20612327188E+03  0.00000000000E+00 0.  1.
        2   -1    0    0  503    0  0.00000000000E+00  0.00000000000E+00 -0.71719105917E+03  0.71719105918E+03  0.25500000920E-02 0.  1.
       25    2    1    2    0    0 -0.11626518400E+03  0.70592327730E+02 -0.64228214719E+03  0.66832265635E+03  0.12501178607E+03 0.  0.
        6    2    1    2  501    0  0.11626518400E+03 -0.70592327730E+02  0.13121435990E+03  0.25499167471E+03  0.17118024472E+03 0.  0.
       24    2    4    4    0    0  0.68844147698E+02 -0.64550138586E+02  0.15602944020E+03  0.20092559530E+03  0.84378146313E+02 0.  0.
      -11    1    5    5    0    0  0.64013374921E+02 -0.11942221418E+02  0.48751625835E+02  0.81345250894E+02  0.51099999109E-03 0.  1.
       12    1    5    5    0    0  0.48307727771E+01 -0.52607917167E+02  0.10727781436E+03  0.11958034441E+03  0.00000000000E+00 0. -1.
        5    1    4    4  501    0  0.47421036305E+02 -0.60421891445E+01 -0.24815080299E+02  0.54066079406E+02  0.46999998093E+01 0. -1.
        5    1    3    3  502    0 -0.62729845707E+02  0.94952264357E+02 -0.29808304296E+03  0.31910273667E+03  0.46999998093E+01 0.  1.
       -5    1    3    3    0  502 -0.53535338296E+02 -0.24359936626E+02 -0.34419910422E+03  0.34921991968E+03  0.46999998093E+01 0.  1.
</event>
<event>
10   0  0.1583500E-03  0.1746960E+03  0.7818609E-02  0.1185410E+00
       21   -1    0    0  501  503  0.00000000000E+00  0.00000000000E+00  0.14778576457E+02  0.14778576457E+02  0.00000000000E+00 0. -1.
        2   -1    0    0  503    0  0.00000000000E+00  0.00000000000E+00 -0.31429633829E+04  0.31429633829E+04  0.25500000920E-02 0. -1.
       25    2    1    2    0    0 -0.35471968672E+02  0.24550265598E+02 -0.25575253176E+04  0.25609413761E+04  0.12499602301E+03 0.  0.
        6    2    1    2  501    0  0.35471968672E+02 -0.24550265598E+02 -0.57065948884E+03  0.59680058321E+03  0.16928587601E+03 0.  0.
       24    2    4    4    0    0  0.75407879623E+02 -0.55398319915E+02 -0.42089435932E+03  0.43869250797E+03  0.80893341397E+02 0.  0.
      -15    1    5    5    0    0 -0.54439876493E+01  0.14663526064E+02 -0.37972859103E+02  0.41106590170E+02  0.17769999504E+01 0.  1.
       16    1    5    5    0    0  0.80851867272E+02 -0.70061845980E+02 -0.38292150022E+03  0.39758591780E+03  0.00000000000E+00 0. -1.
        5    1    4    4  501    0 -0.39935910951E+02  0.30848054317E+02 -0.14976512952E+03  0.15810807524E+03  0.46999998093E+01 0. -1.
        5    1    3    3  502    0 -0.40786404411E+02 -0.38048586710E+02 -0.17756451017E+04  0.17765271861E+04  0.46999998093E+01 0.  1.
       -5    1    3    3    0  502  0.53144357392E+01  0.62598852308E+02 -0.78188021590E+03  0.78441419005E+03  0.46999998093E+01 0.  1.
</event>
<event>
10   0  0.1583500E-03  0.1842915E+03  0.7818609E-02  0.1175096E+00
        2   -1    0    0  503    0  0.00000000000E+00  0.00000000000E+00  0.20229091896E+03  0.20229091897E+03  0.00000000000E+00 0.  1.
       21   -1    0    0  501  503  0.00000000000E+00  0.00000000000E+00 -0.28736230797E+03  0.28736230797E+03  0.25500000920E-02 0.  1.
       25    2    1    2    0    0  0.66114160212E+02  0.13011693122E+02  0.13955468105E+03  0.19910160995E+03  0.12500222295E+03 0.  0.
        6    2    1    2  501    0 -0.66114160212E+02 -0.13011693122E+02 -0.22462607006E+03  0.29055161699E+03  0.17153129290E+03 0.  0.
       24    2    4    4    0    0 -0.58232561977E+02 -0.89337060760E+00 -0.24515286097E+03  0.26500925072E+03  0.82086225004E+02 0.  0.
      -15    1    5    5    0    0 -0.35676722262E+02 -0.36930792747E+02 -0.85113343399E+02  0.99419067173E+02  0.17769999504E+01 0.  1.
       16    1    5    5    0    0 -0.22555839714E+02  0.36037422139E+02 -0.16003951758E+03  0.16559018354E+03  0.00000000000E+00 0. -1.
        5    1    4    4  501    0 -0.78815982354E+01 -0.12118322515E+02  0.20526790913E+02  0.25542366270E+02  0.46999998093E+01 0. -1.
        5    1    3    3  502    0  0.10296020693E+03  0.13636180217E+02  0.92575095575E+02  0.13920843344E+03  0.46999998093E+01 0.  1.
       -5    1    3    3    0  502 -0.36846046717E+02 -0.62448709456E+00  0.46979585478E+02  0.59893176512E+02  0.46999998093E+01 0.  1.
</event>
<event>
10   0  0.1583500E-03  0.1850917E+03  0.7818609E-02  0.1174201E+00
       21   -1    0    0  501  503  0.00000000000E+00  0.00000000000E+00  0.39582927236E+02  0.39582927236E+02  0.00000000000E+00 0.  1.
        2   -1    0    0  503    0  0.00000000000E+00  0.00000000000E+00 -0.70822838040E+03  0.70822838041E+03  0.25500000920E-02 0.  1.
       25    2    1    2    0    0  0.55321427214E+02 -0.42071277484E+02 -0.36715879729E+03  0.39404142820E+03  0.12503044434E+03 0.  0.
        6    2    1    2  501    0 -0.55321427214E+02  0.42071277484E+02 -0.30148665587E+03  0.35376987944E+03  0.17154728570E+03 0.  0.
       24    2    4    4    0    0  0.18069152182E+02  0.68816707799E+02 -0.16554734361E+03  0.19691618390E+03  0.79421829326E+02 0.  0.
      -15    1    5    5    0    0 -0.18119580467E+02  0.49442351150E+02 -0.44064154346E+02  0.68685316558E+02  0.17769999504E+01 0.  1.
       16    1    5    5    0    0  0.36188732650E+02  0.19374356649E+02 -0.12148318926E+03  0.12823086734E+03  0.00000000000E+00 0. -1.
        5    1    4    4  501    0 -0.73390579396E+02 -0.26745430315E+02 -0.13593931227E+03  0.15685369554E+03  0.46999998093E+01 0. -1.
        5    1    3    3  502    0  0.51604225641E+02 -0.42853074735E+01 -0.34685301292E+03  0.35072847409E+03  0.46999998093E+01 0. -1.
       -5    1    3    3    0  502  0.37172015728E+01 -0.37785970010E+02 -0.20305784370E+02  0.43312954116E+02  0.46999998093E+01 0. -1.
</event>
<event>
10   0  0.1583500E-03  0.2107809E+03  0.7818609E-02  0.1148024E+00
        2   -1    0    0  503    0  0.00000000000E+00  0.00000000000E+00  0.21924466872E+04  0.21924466872E+04  0.00000000000E+00 0. -1.
       21   -1    0    0  501  503  0.00000000000E+00  0.00000000000E+00 -0.28417889603E+02  0.28417889603E+02  0.25500000920E-02 0. -1.
       25    2    1    2    0    0  0.66602672434E+02  0.10773759504E+03  0.17218000995E+04  0.17309719050E+04  0.12499939185E+03 0.  0.
        6    2    1    2  501    0 -0.66602672434E+02 -0.10773759504E+03  0.44222869808E+03  0.48989267177E+03  0.16847938476E+03 0.  0.
       24    2    4    4    0    0 -0.98292577510E+02 -0.83951985997E+02  0.24283167230E+03  0.28654255702E+03  0.80187587344E+02 0.  0.
      -11    1    5    5    0    0 -0.42141033608E+02 -0.14414918286E+02  0.15484505735E+03  0.16112308453E+03  0.51099999109E-03 0.  1.
       12    1    5    5    0    0 -0.56151543903E+02 -0.69537067711E+02  0.87986614948E+02  0.12541947249E+03  0.00000000000E+00 0. -1.
        5    1    4    4  501    0  0.31689905076E+02 -0.23785609042E+02  0.19939702578E+03  0.20335011475E+03  0.46999998093E+01 0. -1.
        5    1    3    3  502    0  0.77950089307E+02  0.18817355645E+02  0.10713477833E+04  0.10743549097E+04  0.46999998093E+01 0. -1.
       -5    1    3    3    0  502 -0.11347416872E+02  0.88920239394E+02  0.65045231622E+03  0.65661699530E+03  0.46999998093E+01 0. -1.
</event>
<event>
10   0  0.1583500E-03  0.1818809E+03  0.7818609E-02  0.1177982E+00
        2   -1    0    0  503    0  0.00000000000E+00  0.00000000000E+00  0.10362033816E+04  0.10362033816E+04  0.00000000000E+00 0.  1.
       21   -1    0    0  501  503  0.00000000000E+00  0.00000000000E+00 -0.24759391041E+02  0.24759391041E+02  0.25500000920E-02 0.  1.
       25    2    1    2    0    0  0.58600371396E+02 -0.95809427160E+01  0.44823656101E+03  0.46911542714E+03  0.12500988505E+03 0.  0.
        6    2    1    2  501    0 -0.58600371396E+02  0.95809427160E+01  0.56320742954E+03  0.59184734549E+03  0.17191530965E+03 0.  0.
       24    2    4    4    0    0 -0.90205950798E+02 -0.11410784288E+02  0.26956848778E+03  0.29572999820E+03  0.80757307265E+02 0.  0.
      -13    1    5    5    0    0 -0.16317734294E+02  0.18854877354E+02  0.14930890946E+03  0.15137680291E+03  0.10565999895E+00 0.  1.
       14    1    5    5    0    0 -0.73888216505E+02 -0.30265661642E+02  0.12025957832E+03  0.14435319529E+03  0.00000000000E+00 0. -1.
        5    1    4    4  501    0  0.31605579402E+02  0.20991727004E+02  0.29363894176E+03  0.29611734729E+03  0.46999998093E+01 0. -1.
        5    1    3    3  502    0  0.85248176683E+02 -0.37813884602E+02  0.37064311216E+03  0.38222447343E+03  0.46999998093E+01 0.  1.
       -5    1    3    3    0  502 -0.26647805287E+02  0.28232941886E+02  0.77593448854E+02  0.86890953714E+02  0.46999998093E+01 0.  1.
</event>
<event>
10   0  0.1583500E-03  0.1994566E+03  0.7818609E-02  0.1159508E+00
        2   -1    0    0  503    0  0.00000000000E+00  0.00000000000E+00  0.22180889607E+03  0.22180889609E+03  0.00000000000E+00 0. -1.
       21   -1    0    0  501  503  0.00000000000E+00  0.00000000000E+00 -0.19370010235E+03  0.19370010235E+03  0.25500000920E-02 0. -1.
       25    2    1    2    0    0  0.62418423013E+02 -0.78527423790E+02  0.11569167555E+03  0.19767032144E+03  0.12500550536E+03 0.  0.
        6    2    1    2  501    0 -0.62418423013E+02  0.78527423790E+02 -0.87582881821E+02  0.21783867699E+03  0.17239580095E+03 0.  0.
       24    2    4    4    0    0 -0.69477648923E+02  0.90057689639E+01 -0.10111952640E+03  0.14650548762E+03  0.79564135828E+02 0.  0.
      -15    1    5    5    0    0 -0.17599317716E+02  0.31058464396E+02 -0.77578897281E+02  0.85416668320E+02  0.17769999504E+01 0.  1.
       16    1    5    5    0    0 -0.51878331207E+02 -0.22052695432E+02 -0.23540629120E+02  0.61088819304E+02  0.00000000000E+00 0. -1.
        5    1    4    4  501    0  0.70592259107E+01  0.69521654826E+02  0.13536644579E+02  0.71333189364E+02  0.46999998093E+01 0. -1.
        5    1    3    3  502    0  0.92651012211E+02 -0.40386192067E+02  0.10831431708E+03  0.14822056489E+03  0.46999998093E+01 0.  1.
       -5    1    3    3    0  502 -0.30232589198E+02 -0.38141231722E+02  0.73773584656E+01  0.49449756552E+02  0.46999998093E+01 0.  1.
</event>
<event>
10   0  0.1583500E-03  0.1863580E+03  0.7818609E-02  0.1173317E+00
       -2   -1    0    0    0  501  0.00000000000E+00  0.00000000000E+00  0.12350744442E+03  0.12350744445E+03  0.00000000000E+00 0.  1.
       21   -1    0    0  501  503  0.00000000000E+00  0.00000000000E+00 -0.31068657520E+03  0.31068657520E+03  0.25500000920E-02 0.  1.
       25    2    1    2    0    0  0.68478335256E+02 -0.11776374964E+02  0.31966200387E+02  0.14652408302E+03  0.12497801219E+03 0.  0.
       -6    2    1    2    0  503 -0.68478335256E+02  0.11776374964E+02 -0.21914533117E+03  0.28766993662E+03  0.17292007072E+03 0.  0.
      -24    2    4    4    0    0 -0.93424424098E+02 -0.25906531187E+02 -0.20483715106E+03  0.24003462639E+03  0.79114423693E+02 0.  0.
       15    1    5    5    0    0 -0.13875606165E+02 -0.37203309775E+02 -0.10242103616E+03  0.10986284668E+03  0.17769999504E+01 0. -1.
      -16    1    5    5    0    0 -0.79548817934E+02  0.11296778588E+02 -0.10241611491E+03  0.13017177971E+03  0.00000000000E+00 0.  1.
       -5    1    4    4    0  503  0.24946088842E+02  0.37682906151E+02 -0.14308180106E+02  0.47635310230E+02  0.46999998093E+01 0.  1.
        5    1    3    3  502    0  0.10027161726E+02 -0.47429456520E+02  0.55623208308E+02  0.73933271392E+02  0.46999998093E+01 0. -1.
       -5    1    3    3    0  502  0.58451173530E+02  0.35653081556E+02 -0.23657007921E+02  0.72590811633E+02  0.46999998093E+01 0. -1.
</event>
<event>
10   0  0.1583500E-03  0.2102903E+03  0.7818609E-02  0.1149492E+00
       21   -1    0    0  501  503  0.00000000000E+00  0.00000000000E+00  0.20693925883E+02  0.20693925883E+02  0.00000000000E+00 0. -1.
        2   -1    0    0  503    0  0.00000000000E+00  0.00000000000E+00 -0.20124150863E+04  0.20124150863E+04  0.25500000920E-02 0. -1.
       25    2    1    2    0    0 -0.53555404871E+02  0.10704373934E+03 -0.12579624628E+04  0.12698110160E+04  0.12499565991E+03 0.  0.
        6    2    1    2  501    0  0.53555404871E+02 -0.10704373934E+03 -0.73375869758E+03  0.76329799615E+03  0.17290303970E+03 0.  0.
       24    2    4    4    0    0  0.41975814390E+02 -0.60256959513E+01 -0.20437249283E+03  0.22421490814E+03  0.81889750283E+02 0.  0.
      -15    1    5    5    0    0 -0.16364704543E+02  0.21848877598E+02 -0.54112685042E+02  0.60634292429E+02  0.17769999504E+01 0.  1.
       16    1    5    5    0    0  0.58340518933E+02 -0.27874573550E+02 -0.15025980779E+03  0.16358061571E+03  0.00000000000E+00 0. -1.
        5    1    4    4  501    0  0.11579590481E+02 -0.10101804339E+03 -0.52938620474E+03  0.53908308801E+03  0.46999998093E+01 0. -1.
        5    1    3    3  502    0 -0.39259965365E+02 -0.19703046384E+02 -0.39450535126E+03  0.39697117917E+03  0.46999998093E+01 0. -1.
       -5    1    3    3    0  502 -0.14295439506E+02  0.12674678573E+03 -0.86345711157E+03  0.87283983685E+03  0.46999998093E+01 0. -1.
</event>
<event>
10   0  0.1583500E-03  0.1901280E+03  0.7818609E-02  0.1169292E+00
        4   -1    0    0  503    0  0.00000000000E+00  0.00000000000E+00  0.36589157550E+03  0.36589377956E+03  0.00000000000E+00 0. -1.
       21   -1    0    0  501  503  0.00000000000E+00  0.00000000000E+00 -0.89633483324E+02  0.89633483324E+02  0.12699999809E+01 0. -1.
       25    2    1    2    0    0  0.68429027094E+02 -0.38497265642E+02  0.20471538082E+03  0.25238439785E+03  0.12499970370E+03 0.  0.
        6    2    1    2  501    0 -0.68429027094E+02  0.38497265642E+02  0.71542711351E+02  0.20314286503E+03  0.17315915469E+03 0.  0.
       24    2    4    4    0    0 -0.39762105270E+02 -0.74823614892E+01  0.10580168552E+03  0.13886467411E+03  0.80326772057E+02 0.  0.
      -11    1    5    5    0    0  0.21223932891E+02 -0.63728572769E+01  0.55644080355E+02  0.59894342939E+02  0.51099999109E-03 0.  1.
       12    1    5    5    0    0 -0.60986038161E+02 -0.11095042123E+01  0.50157605163E+02  0.78970331175E+02  0.00000000000E+00 0. -1.
        5    1    4    4  501    0 -0.28666921824E+02  0.45979627132E+02 -0.34258974167E+02  0.64278190914E+02  0.46999998093E+01 0. -1.
        5    1    3    3  502    0  0.45144951171E+02  0.31798095129E+02  0.15081027295E+03  0.16067051346E+03  0.46999998093E+01 0.  1.
       -5    1    3    3    0  502  0.23284075922E+02 -0.70295360771E+02  0.53905107867E+02  0.91713884390E+02  0.46999998093E+01 0.  1.
</event>
<event>
10   0  0.1583500E-03  0.1774936E+03  0.7818609E-02  0.1182658E+00
       21   -1    0    0  501  503  0.00000000000E+00  0.00000000000E+00  0.11685596166E+03  0.11685596166E+03  0.00000000000E+00 0.  1.
        2   -1    0    0  503    0  0.00000000000E+00  0.00000000000E+00 -0.48816463456E+03  0.48816463456E+03  0.25500000920E-02 0.  1.
       25    2    1    2    0    0  0.22613763395E+02  0.42839226637E+02 -0.40300540358E+03  0.42471897286E+03  0.12500507574E+03 0.  0.
        6    2    1    2  501    0 -0.22613763395E+02 -0.42839226637E+02  0.31696730681E+02  0.18030162336E+03  0.17075541284E+03 0.  0.
       24    2    4    4    0    0 -0.60320437268E+02 -0.42520186204E+02  0.67630000497E+02  0.12800262796E+03  0.79776778643E+02 0.  0.
      -11    1    5    5    0    0 -0.38370440890E+02  0.15645772738E+02  0.86991911047E+01  0.42340959659E+02  0.51099999109E-03 0.  1.
       12    1    5    5    0    0 -0.21949996378E+02 -0.58165958943E+02  0.58930809392E+02  0.85661668302E+02  0.00000000000E+00 0. -1.
        5    1    4    4  501    0  0.37706673873E+02 -0.31904043238E+00 -0.35933269816E+02  0.52298995394E+02  0.46999998093E+01 0. -1.
        5    1    3    3  502    0 -0.39156414245E+01 -0.39172930960E+02 -0.20369013172E+03  0.20751291653E+03  0.46999998093E+01 0.  1.
       -5    1    3    3    0  502  0.26529404820E+02  0.82012157597E+02 -0.19931527186E+03  0.21720605634E+03  0.46999998093E+01 0.  1.
</event>
<event>
10   0  0.1583500E-03  0.2360923E+03  0.7818609E-02  0.1128382E+00
       21   -1    0    0  501  503  0.00000000000E+00  0.00000000000E+00  0.86948751167E+02  0.86948751167E+02  0.00000000000E+00 0. -1.
        2   -1    0    0  503    0  0.00000000000E+00  0.00000000000E+00 -0.76953317589E+03  0.76953317589E+03  0.25500000920E-02 0. -1.
       25    2    1    2    0    0  0.24902368437E+02 -0.15890005413E+03 -0.54820009816E+03  0.58482275623E+03  0.12499981369E+03 0.  0.
        6    2    1    2  501    0 -0.24902368437E+02  0.15890005413E+03 -0.13438432656E+03  0.27165917083E+03  0.17282998211E+03 0.  0.
       24    2    4    4    0    0  0.52533868440E+02  0.11089814688E+03 -0.11305146882E+03  0.17796960525E+03  0.61922043529E+02 0.  0.
      -13    1    5    5    0    0  0.47971663125E+02  0.11420636963E+03 -0.87139483860E+02  0.15145189381E+03  0.10565999895E+00 0.  1.
       14    1    5    5    0    0  0.45622053157E+01 -0.33082227533E+01 -0.25911984965E+02  0.26517711439E+02  0.00000000000E+00 0. -1.
        5    1    4    4  501    0 -0.77436236877E+02  0.48001907254E+02 -0.21332857735E+02  0.93689565583E+02  0.46999998093E+01 0. -1.
        5    1    3    3  502    0  0.37207380090E+01 -0.51848535538E+02 -0.42062744794E+02  0.67033417238E+02  0.46999998093E+01 0.  1.
       -5    1    3    3    0  502  0.21181630428E+02 -0.10705151859E+03 -0.50613735337E+03  0.51778933899E+03  0.46999998093E+01 0.  1.
</event>
<event>
10   0  0.1583500E-03  0.2329550E+03  0.7818609E-02  0.1130996E+00
       21   -1    0    0  501  503  0.00000000000E+00  0.00000000000E+00  0.79214133785E+03  0.79214133785E+03  0.00000000000E+00 0.  1.
        4   -1    0    0  503    0  0.00000000000E+00  0.00000000000E+00 -0.64169207424E+02  0.64181773748E+02  0.12699999809E+01 0. -1.
       25    2    1    2    0    0 -0.14594721617E+03  0.51156689577E+02  0.46065856599E+03  0.50174651064E+03  0.12500259887E+03 0.  0.
        6    2    1    2  501    0  0.14594721617E+03 -0.51156689577E+02  0.26731356444E+03  0.35457660096E+03  0.17421374061E+03 0.  0.
       24    2    4    4    0    0  0.11487239653E+03 -0.40767742435E+02  0.28329339369E+03  0.31782038271E+03  0.76791747318E+02 0.  0.
      -15    1    5    5    0    0  0.10975856956E+03 -0.49513136703E+02  0.19669071284E+03  0.23062716350E+03  0.17769999504E+01 0.  1.
       16    1    5    5    0    0  0.51138269655E+01  0.87453942687E+01  0.86602680848E+02  0.87193219216E+02  0.00000000000E+00 0. -1.
        5    1    4    4  501    0  0.31074819648E+02 -0.10388947143E+02 -0.15979829245E+02  0.36756218246E+02  0.46999998093E+01 0. -1.
        5    1    3    3  502    0 -0.16128080400E+03  0.67237722034E+02  0.42406316553E+03  0.45867642992E+03  0.46999998093E+01 0. -1.
       -5    1    3    3    0  502  0.15333587828E+02 -0.16081032457E+02  0.36595400457E+02  0.43070080721E+02  0.46999998093E+01 0. -1.
</event>
<event>
10   0  0.1583500E-03  0.2186809E+03  0.7818609E-02  0.1142900E+00
       21   -1    0    0  501  503  0.00000000000E+00  0.00000000000E+00  0.18046806960E+03  0.18046806960E+03  0.00000000000E+00 0. -1.
        2   -1    0    0  503    0  0.00000000000E+00  0.00000000000E+00 -0.35489642408E+03  0.35489642409E+03  0.25500000920E-02 0. -1.
       25    2    1    2    0    0 -0.74277895459E+02 -0.10629101378E+03 -0.24634452610E+03  0.30516186396E+03  0.12499260902E+03 0.  0.
        6    2    1    2  501    0  0.74277895459E+02  0.10629101378E+03  0.71916171615E+02  0.23020262973E+03  0.17608614264E+03 0.  0.
       24    2    4    4    0    0 -0.14293166011E+02  0.77427712965E+02  0.56487749064E+00  0.11276745512E+03  0.80726913222E+02 0.  0.
      -15    1    5    5    0    0  0.85643908946E+01  0.83758830699E+02 -0.13354436946E+02  0.85266577429E+02  0.17769999504E+01 0.  1.
       16    1    5    5    0    0 -0.22857556906E+02 -0.63311177343E+01  0.13919314436E+02  0.27500877692E+02  0.00000000000E+00 0. -1.
        5    1    4    4  501    0  0.88571061470E+02  0.28863300816E+02  0.71351294124E+02  0.11743517461E+03  0.46999998093E+01 0. -1.
        5    1    3    3  502    0  0.11048247975E+02 -0.82412664026E+02 -0.16482234612E+03  0.18466836966E+03  0.46999998093E+01 0. -1.
       -5    1    3    3    0  502 -0.85326143435E+02 -0.23878349754E+02 -0.81522179976E+02  0.12049349429E+03  0.46999998093E+01 0. -1.
</event>
<event>
10   0  0.1583500E-03  0.1752511E+03  0.7818609E-02  0.1184206E+00
        2   -1    0    0  503    0  0.00000000000E+00  0.00000000000E+00  0.44739801338E+02  0.44739801411E+02  0.00000000000E+00 0. -1.
       21   -1    0    0  501  503  0.00000000000E+00  0.00000000000E+00 -0.12260090319E+04  0.12260090319E+04  0.25500000920E-02 0. -1.
       25    2    1    2    0    0  0.23458575561E+02  0.43878524981E+02 -0.81916932755E+02  0.15751551428E+03  0.12500049458E+03 0.  0.
        6    2    1    2  501    0 -0.23458575561E+02 -0.43878524981E+02 -0.10993522978E+04  0.11132333190E+04  0.16803963275E+03 0.  0.
       24    2    4    4    0    0  0.18629730541E+02  0.30714060519E+02 -0.51529956177E+03  0.52291546583E+03  0.81342028979E+02 0.  0.
      -11    1    5    5    0    0  0.52538619545E+01  0.43173376170E+02 -0.12804433143E+03  0.13522904380E+03  0.51099999109E-03 0.  1.
       12    1    5    5    0    0  0.13375868587E+02 -0.12459315651E+02 -0.38725523034E+03  0.38768642204E+03  0.00000000000E+00 0. -1.
        5    1    4    4  501    0 -0.42088306102E+02 -0.74592585500E+02 -0.58405273603E+03  0.59031785318E+03  0.46999998093E+01 0. -1.
        5    1    3    3  502    0 -0.40556021448E+02  0.17720627754E+02 -0.75842694969E+02  0.87937568206E+02  0.46999998093E+01 0. -1.
       -5    1    3    3    0  502  0.64014597008E+02  0.26157897228E+02 -0.60742377852E+01  0.69577946078E+02  0.46999998093E+01 0. -1.
</event>
<event>
10   0  0.1583500E-03  0.1984984E+03  0.7818609E-02  0.1161022E+00
       -2   -1    0    0    0  501  0.00000000000E+00  0.00000000000E+00  0.14883113652E+03  0.14883113654E+03  0.00000000000E+00 0. -1.
       21   -1    0    0  501  503  0.00000000000E+00  0.00000000000E+00 -0.23959288611E+03  0.23959288611E+03  0.25500000920E-02 0.  1.
       25    2    1    2    0    0 -0.81213178575E+02 -0.49217107511E+02  0.24512247550E+02  0.15888159894E+03  0.12499843261E+03 0.  0.
       -6    2    1    2    0  503  0.81213178575E+02  0.49217107511E+02 -0.11527399715E+03  0.22954242372E+03  0.17430928209E+03 0.  0.
      -24    2    4    4    0    0  0.86946761289E+02 -0.27299284068E+02 -0.55811317261E+02  0.13235429457E+03  0.78088193387E+02 0.  0.
       13    1    5    5    0    0  0.58874344980E+02 -0.49254370549E+02 -0.58651153257E+02  0.96603056150E+02  0.10565999895E+00 0. -1.
      -14    1    5    5    0    0  0.28072416308E+02  0.21955086482E+02  0.28398359960E+01  0.35751238416E+02  0.00000000000E+00 0.  1.
       -5    1    4    4    0  503 -0.57335827134E+01  0.76516391579E+02 -0.59462679885E+02  0.97188129153E+02  0.46999998093E+01 0.  1.
        5    1    3    3  502    0 -0.51475370423E+01 -0.75035260679E+02  0.22431295685E+01  0.75391704525E+02  0.46999998093E+01 0.  1.
       -5    1    3    3    0  502 -0.76065641533E+02  0.25818153168E+02  0.22269117982E+02  0.83489894411E+02  0.46999998093E+01 0.  1.
</event>
<event>
10   0  0.1583500E-03  0.2437497E+03  0.7818609E-02  0.1122554E+00
       21   -1    0    0  501  503  0.00000000000E+00  0.00000000000E+00  0.60206701328E+02  0.60206701328E+02  0.00000000000E+00 0.  1.
        2   -1    0    0  503    0  0.00000000000E+00  0.00000000000E+00 -0.92854616677E+03  0.92854616677E+03  0.25500000920E-02 0. -1.
       25    2    1    2    0    0  0.15680829862E+03 -0.74240926012E+02 -0.28312614641E+03  0.35480606797E+03  0.12500549379E+03 0.  0.
        6    2    1    2  501    0 -0.15680829862E+03  0.74240926012E+02 -0.58521331903E+03  0.63394680013E+03  0.17121144532E+03 0.  0.
       24    2    4    4    0    0 -0.95538468702E+02  0.49259151975E+02 -0.53337685004E+03  0.54976134647E+03  0.78693143629E+02 0.  0.
      -13    1    5    5    0    0 -0.58348470578E+02 -0.47397355641E+01 -0.15382341949E+03  0.16458634408E+03  0.10565999895E+00 0.  1.
       14    1    5    5    0    0 -0.37189998124E+02  0.53998887539E+02 -0.37955343055E+03  0.38517500238E+03  0.00000000000E+00 0. -1.
        5    1    4    4  501    0 -0.61269829922E+02  0.24981774037E+02 -0.51836468993E+02  0.84185453663E+02  0.46999998093E+01 0. -1.
        5    1    3    3  502    0  0.94057187525E+02 -0.20944303646E+02 -0.52403155801E+02  0.10978888430E+03  0.46999998093E+01 0. -1.
       -5    1    3    3    0  502  0.62751111099E+02 -0.53296622366E+02 -0.23072299061E+03  0.24501718367E+03  0.46999998093E+01 0. -1.
</event>
<event>
10   0  0.1583500E-03  0.1836983E+03  0.7818609E-02  0.1175988E+00
       21   -1    0    0  501  503  0.00000000000E+00  0.00000000000E+00  0.97675820854E+01  0.97675820854E+01  0.00000000000E+00 0.  1.
        2   -1    0    0  503    0  0.00000000000E+00  0.00000000000E+00 -0.30240058065E+04  0.30240058065E+04  0.25500000920E-02 0.  1.
       25    2    1    2    0    0  0.17940654879E+02  0.61598213484E+02 -0.18283311558E+04  0.18337231168E+04  0.12501778612E+03 0.  0.
        6    2    1    2  501    0 -0.17940654879E+02 -0.61598213484E+02 -0.11859070686E+04  0.12000502718E+04  0.17213039360E+03 0.  0.
       24    2    4    4    0    0 -0.34365458250E+02  0.17870438966E+02 -0.84112585972E+03  0.84581699709E+03  0.80083352666E+02 0.  0.
      -13    1    5    5    0    0 -0.15239569178E+02 -0.35538890591E+01 -0.27167799508E+02  0.31352433563E+02  0.10565999895E+00 0.  1.
       14    1    5    5    0    0 -0.19125889072E+02  0.21424328025E+02 -0.81395806021E+03  0.81446456353E+03  0.00000000000E+00 0. -1.
        5    1    4    4  501    0  0.16424803371E+02 -0.79468652450E+02 -0.34478120889E+03  0.35423327468E+03  0.46999998093E+01 0. -1.
        5    1    3    3  502    0  0.60987358159E+02  0.13644673271E+01 -0.58775066910E+03  0.59092661021E+03  0.46999998093E+01 0.  1.
       -5    1    3    3    0  502 -0.43046703279E+02  0.60233746157E+02 -0.12405804867E+04  0.12427965066E+04  0.46999998093E+01 0.  1.
</event>
<event>
10   0  0.1583500E-03  0.2092835E+03  0.7818609E-02  0.1150223E+00
        2   -1    0    0  503    0  0.00000000000E+00  0.00000000000E+00  0.74276681392E+03  0.74276681392E+03  0.00000000000E+00 0. -1.
       21   -1    0    0  501  503  0.00000000000E+00  0.00000000000E+00 -0.98778693259E+02  0.98778693259E+02  0.25500000920E-02 0.  1.
       25    2    1    2    0    0  0.22914463062E+02  0.11673328639E+03  0.60439987118E+03  0.62855068996E+03  0.12500013120E+03 0.  0.
        6    2    1    2  501    0 -0.22914463062E+02 -0.11673328639E+03  0.39588249478E+02  0.21299481722E+03  0.17218545205E+03 0.  0.
       24    2    4    4    0    0 -0.39439348215E+02 -0.15000967959E+03  0.35843339511E+02  0.17535833860E+03  0.73535268888E+02 0.  0.
      -13    1    5    5    0    0  0.20748011629E+02 -0.46774353000E+02  0.22146616675E+01  0.51217535820E+02  0.10565999895E+00 0.  1.
       14    1    5    5    0    0 -0.60187359844E+02 -0.10323532659E+03  0.33628677844E+02  0.12414080278E+03  0.00000000000E+00 0. -1.
        5    1    4    4  501    0  0.16524885154E+02  0.33276393202E+02  0.37449099669E+01  0.37636478618E+02  0.46999998093E+01 0. -1.
        5    1    3    3  502    0 -0.35068281262E+01  0.70134966648E+02  0.10586878501E+03  0.12712789240E+03  0.46999998093E+01 0.  1.
       -5    1    3    3    0  502  0.26421291188E+02  0.46598319742E+02  0.49853108618E+03  0.50142279756E+03  0.46999998093E+01 0.  1.
</event>
<event>
10   0  0.1583500E-03  0.2292380E+03  0.7818609E-02  0.1130684E+00
       21   -1    0    0  501  503  0.00000000000E+00  0.00000000000E+00  0.32282887559E+02  0.32282887559E+02  0.00000000000E+00 0.  1.
        2   -1    0    0  503    0  0.00000000000E+00  0.00000000000E+00 -0.20158138460E+04  0.20158138460E+04  0.25500000920E-02 0. -1.
       25    2    1    2    0    0  0.12722601018E+03 -0.11138882081E+03 -0.14796897583E+04  0.14945571928E+04  0.12500197874E+03 0.  0.
        6    2    1    2  501    0 -0.12722601018E+03  0.11138882081E+03 -0.50384120013E+03  0.55353954074E+03  0.15477771528E+03 0.  0.
       24    2    4    4    0    0 -0.17928727893E+02  0.52869174475E+02 -0.29753035579E+03  0.31279756390E+03  0.78749060140E+02 0.  0.
      -11    1    5    5    0    0  0.24654962001E+01  0.68857729153E+02 -0.18757049534E+03  0.19982531436E+03  0.51099999109E-03 0.  1.
       12    1    5    5    0    0 -0.20394224093E+02 -0.15988554678E+02 -0.10995986045E+03  0.11297224954E+03  0.00000000000E+00 0. -1.
        5    1    4    4  501    0 -0.10929728229E+03  0.58519646330E+02 -0.20631084434E+03  0.24074197684E+03  0.46999998093E+01 0. -1.
        5    1    3    3  502    0  0.40034980633E+02 -0.77269611440E+02 -0.33906742720E+03  0.35008884974E+03  0.46999998093E+01 0. -1.
       -5    1    3    3    0  502  0.87191029548E+02 -0.34119209365E+02 -0.11406223311E+04  0.11444683430E+04  0.46999998093E+01 0. -1.
</event>
<event>
10   0  0.1583500E-03  0.2231242E+03  0.7818609E-02  0.1138221E+00
        2   -1    0    0  503    0  0.00000000000E+00  0.00000000000E+00  0.18248644441E+04  0.18248644441E+04  0.00000000000E+00 0.  1.
       21   -1    0    0  501  503  0.00000000000E+00  0.00000000000E+00 -0.51852473808E+02  0.51852473808E+02  0.25500000920E-02 0.  1.
       25    2    1    2    0    0  0.35636656072E+01 -0.14277306452E+03  0.15488560283E+04  0.15604412469E+04  0.12500016487E+03 0.  0.
        6    2    1    2  501    0 -0.35636656072E+01  0.14277306452E+03  0.22415594199E+03  0.31627567093E+03  0.17142801996E+03 0.  0.
       24    2    4    4    0    0 -0.14840981063E+02  0.74614505901E+02  0.22086444034E+03  0.24695257999E+03  0.80105533799E+02 0.  0.
      -13    1    5    5    0    0 -0.11330343500E+02  0.91612892031E+02  0.17387535578E+03  0.19686022752E+03  0.10565999895E+00 0.  1.
       14    1    5    5    0    0 -0.35106375629E+01 -0.16998386130E+02  0.46989084565E+02  0.50092352464E+02  0.00000000000E+00 0. -1.
        5    1    4    4  501    0  0.11277315456E+02  0.68158558614E+02  0.32915016500E+01  0.69323090940E+02  0.46999998093E+01 0. -1.
        5    1    3    3  502    0  0.55154677667E-01  0.94390673487E+01  0.54428852005E+03  0.54439065210E+03  0.46999998093E+01 0. -1.
       -5    1    3    3    0  502  0.35085109295E+01 -0.15221213186E+03  0.10045675082E+04  0.10160505949E+04  0.46999998093E+01 0. -1.
</event>
<event>
10   0  0.1583500E-03  0.1790537E+03  0.7818609E-02  0.1181336E+00
        2   -1    0    0  503    0  0.00000000000E+00  0.00000000000E+00  0.34471363650E+03  0.34471363651E+03  0.00000000000E+00 0.  1.
       21   -1    0    0  501  503  0.00000000000E+00  0.00000000000E+00 -0.12830269526E+03  0.12830269526E+03  0.25500000920E-02 0.  1.
       25    2    1    2    0    0 -0.22284480200E+02 -0.44416174305E+02  0.25640723181E+03  0.28954989300E+03  0.12500030966E+03 0.  0.
        6    2    1    2  501    0  0.22284480200E+02  0.44416174305E+02 -0.39996290566E+02  0.18346643878E+03  0.17201987182E+03 0.  0.
       24    2    4    4    0    0  0.57291717215E+01  0.62857346954E+02 -0.84431183856E+02  0.13237138200E+03  0.80060530159E+02 0.  0.
      -13    1    5    5    0    0  0.10916560494E+02  0.20551369346E+02 -0.86620880560E+02  0.89692353008E+02  0.10565999895E+00 0.  1.
       14    1    5    5    0    0 -0.51873887727E+01  0.42305977608E+02  0.21896967047E+01  0.42679028987E+02  0.00000000000E+00 0. -1.
        5    1    4    4  501    0  0.16555308478E+02 -0.18441172650E+02  0.44434893289E+02  0.51095056780E+02  0.46999998093E+01 0. -1.
        5    1    3    3  502    0 -0.58794752141E+02 -0.28945800637E+02  0.59516389219E+02  0.88650847925E+02  0.46999998093E+01 0. -1.
       -5    1    3    3    0  502  0.36510271942E+02 -0.15470373667E+02  0.19689084259E+03  0.20089904507E+03  0.46999998093E+01 0. -1.
</event>
<event>
10   0  0.1583500E-03  0.1875289E+03  0.7818609E-02  0.1171918E+00
       -4   -1    0    0    0  501  0.00000000000E+00  0.00000000000E+00  0.11731902647E+03  0.11732590026E+03  0.00000000000E+00 0. -1.
       21   -1    0    0  501  503  0.00000000000E+00  0.00000000000E+00 -0.39790719791E+03  0.39790719791E+03  0.12699999809E+01 0. -1.
       25    2    1    2    0    0  0.11651982536E+02  0.72321008341E+02  0.34164181947E+02  0.14885062576E+03  0.12499288186E+03 0.  0.
       -6    2    1    2    0  503 -0.11651982536E+02 -0.72321008341E+02 -0.31475235339E+03  0.36638247242E+03  0.17262958954E+03 0.  0.
      -24    2    4    4    0    0 -0.10133161169E+02  0.11055898133E+02 -0.24687952766E+03  0.25875893492E+03  0.76037960170E+02 0.  0.
       11    1    5    5    0    0 -0.29703804996E+02 -0.13636635646E+02 -0.19748177157E+03  0.20016823916E+03  0.51099999109E-03 0. -1.
      -12    1    5    5    0    0  0.19570643826E+02  0.24692533779E+02 -0.49397756088E+02  0.58590695770E+02  0.00000000000E+00 0.  1.
       -5    1    4    4    0  503 -0.15188213662E+01 -0.83376906475E+02 -0.67872825730E+02  0.10762353749E+03  0.46999998093E+01 0.  1.
        5    1    3    3  502    0  0.61550940720E+02  0.70665752920E+02  0.30092764259E+02  0.98538476740E+02  0.46999998093E+01 0. -1.
       -5    1    3    3    0  502 -0.49898958185E+02  0.16552554218E+01  0.40714176885E+01  0.50312149016E+02  0.46999998093E+01 0. -1.
</event>
<event>
10   0  0.1583500E-03  0.2080125E+03  0.7818609E-02  0.1151155E+00
       21   -1    0    0  501  503  0.00000000000E+00  0.00000000000E+00  0.33859479539E+03  0.33859479539E+03  0.00000000000E+00 0. -1.
        2   -1    0    0  503    0  0.00000000000E+00  0.00000000000E+00 -0.28730189410E+03  0.28730189412E+03  0.25500000920E-02 0. -1.
       25    2    1    2    0    0 -0.63714163287E+02  0.99325263068E+02 -0.22305108524E+03  0.28160924918E+03  0.12500792019E+03 0.  0.
        6    2    1    2  501    0  0.63714163287E+02 -0.99325263068E+02  0.27434398652E+03  0.34428744032E+03  0.17130153571E+03 0.  0.
       24    2    4    4    0    0  0.17615154073E+02 -0.11992361735E+03  0.24714949488E+03  0.28674579260E+03  0.80301364244E+02 0.  0.
      -11    1    5    5    0    0 -0.52345932224E+01 -0.22221299789E+02  0.13223082120E+03  0.13418709776E+03  0.51099999109E-03 0.  1.
       12    1    5    5    0    0  0.22849747296E+02 -0.97702317560E+02  0.11491867368E+03  0.15255869483E+03  0.00000000000E+00 0. -1.
        5    1    4    4  501    0  0.46099009213E+02  0.20598354281E+02  0.27194491638E+02  0.57541647728E+02  0.46999998093E+01 0. -1.
        5    1    3    3  502    0 -0.10172515256E+03  0.75705087001E+02 -0.16641900465E+03  0.20927647256E+03  0.46999998093E+01 0.  1.
       -5    1    3    3    0  502  0.38010989276E+02  0.23620176067E+02 -0.56632080588E+02  0.72332776617E+02  0.46999998093E+01 0.  1.
</event>
<event>
10   0  0.1583500E-03  0.2226309E+03  0.7818609E-02  0.1139980E+00
        2   -1    0    0  503    0  0.00000000000E+00  0.00000000000E+00  0.79106631332E+03  0.79106631333E+03  0.00000000000E+00 0.  1.
       21   -1    0    0  501  503  0.00000000000E+00  0.00000000000E+00 -0.65644337348E+02  0.65644337348E+02  0.25500000920E-02 0.  1.
       25    2    1    2    0    0 -0.96486547191E+02  0.92721051974E+02  0.52907467722E+03  0.55986596753E+03  0.12499216075E+03 0.  0.
        6    2    1    2  501    0  0.96486547191E+02 -0.92721051974E+02  0.19634729875E+03  0.29684468315E+03  0.17792598719E+03 0.  0.
       24    2    4    4    0    0 -0.66576172157E+00  0.78686326452E+01  0.85478961020E+02  0.11832091978E+03  0.81429900289E+02 0.  0.
      -15    1    5    5    0    0  0.13907736286E+02  0.14565437351E+02 -0.92578567534E+01  0.22236068320E+02  0.17769999504E+01 0.  1.
       16    1    5    5    0    0 -0.14573498007E+02 -0.66968047059E+01  0.94736817773E+02  0.96084851456E+02  0.00000000000E+00 0. -1.
        5    1    4    4  501    0  0.97152308913E+02 -0.10058968462E+03  0.11086833773E+03  0.17852376337E+03  0.46999998093E+01 0. -1.
        5    1    3    3  502    0 -0.77132950177E+02  0.12394285819E+03  0.42526242400E+03  0.44964602007E+03  0.46999998093E+01 0. -1.
       -5    1    3    3    0  502 -0.19353597014E+02 -0.31221806212E+02  0.10381225322E+03  0.11021994746E+03  0.46999998093E+01 0. -1.
</event>
<event>
10   0  0.1583500E-03  0.2344084E+03  0.7818609E-02  0.1129884E+00
       21   -1    0    0  501  503  0.00000000000E+00  0.00000000000E+00  0.99847648007E+02  0.99847648007E+02  0.00000000000E+00 0.  1.
        2   -1    0    0  503    0  0.00000000000E+00  0.00000000000E+00 -0.83897635828E+03  0.83897635828E+03  0.25500000920E-02 0.  1.
       25    2    1    2    0    0 -0.14033192521E+03  0.70088756499E+02 -0.66251712860E+03  0.69221373308E+03  0.12500169421E+03 0.  0.
        6    2    1    2  501    0  0.14033192521E+03 -0.70088756499E+02 -0.76611581665E+02  0.24661027320E+03  0.17418900477E+03 0.  0.
       24    2    4    4    0    0  0.28595634624E+02 -0.43197135482E+02  0.17935279185E+02  0.97716496269E+02  0.80889656757E+02 0.  0.
      -15    1    5    5    0    0  0.50860364309E+02 -0.15825399071E+02 -0.80460760660E+01  0.53899137120E+02  0.17769999504E+01 0.  1.
       16    1    5    5    0    0 -0.22264729685E+02 -0.27371736411E+02  0.25981355252E+02  0.43817359149E+02  0.00000000000E+00 0. -1.
        5    1    4    4  501    0  0.11173629059E+03 -0.26891621017E+02 -0.94546860850E+02  0.14889377693E+03  0.46999998093E+01 0. -1.
        5    1    3    3  502    0 -0.56107457625E+02  0.65296019287E+02 -0.51538755967E+03  0.52254956090E+03  0.46999998093E+01 0.  1.
       -5    1    3    3    0  502 -0.84224467585E+02  0.47927372117E+01 -0.14712956893E+03  0.16966417218E+03  0.46999998093E+01 0.  1.
</event>
<event>
10   0  0.1583500E-03  0.2060007E+03  0.7818609E-02  0.1152791E+00
       21   -1    0    0  501  503  0.00000000000E+00  0.00000000000E+00  0.70462844376E+03  0.70462844376E+03  0.00000000000E+00 0.  1.
        2   -1    0    0  503    0  0.00000000000E+00  0.00000000000E+00 -0.60605270646E+02  0.60605270700E+02  0.25500000920E-02 0. -1.
       25    2    1    2    0    0 -0.41863334418E+00 -0.11564595645E+03  0.13900776379E+03  0.21981932464E+03  0.12499285817E+03 0.  0.
        6    2    1    2  501    0  0.41863334418E+00  0.11564595645E+03  0.50501540931E+03  0.54541438981E+03  0.17047618741E+03 0.  0.
       24    2    4    4    0    0 -0.33216300582E+02  0.13185033566E+03  0.46384695703E+03  0.48963964511E+03  0.78135452079E+02 0.  0.
      -15    1    5    5    0    0 -0.56371643610E+02  0.75065703966E+02  0.24542208300E+03  0.26276944013E+03  0.17769999504E+01 0.  1.
       16    1    5    5    0    0  0.23155343028E+02  0.56784631693E+02  0.21842487404E+03  0.22687020498E+03  0.00000000000E+00 0. -1.
        5    1    4    4  501    0  0.33634933926E+02 -0.16204379211E+02  0.41168452281E+02  0.55774744708E+02  0.46999998093E+01 0. -1.
        5    1    3    3  502    0 -0.33707090271E+02 -0.10412942468E+03  0.14706295988E+03  0.18338132181E+03  0.46999998093E+01 0.  1.
       -5    1    3    3    0  502  0.33288456927E+02 -0.11516531763E+02 -0.80551960888E+01  0.36438002836E+02  0.46999998093E+01 0.  1.
</event>
<event>
10   0  0.1583500E-03  0.1762499E+03  0.7818609E-02  0.1184326E+00
        2   -1    0    0  503    0  0.00000000000E+00  0.00000000000E+00  0.25918360830E+04  0.25918360830E+04  0.00000000000E+00 0.  1.
       21   -1    0    0  501  503  0.00000000000E+00  0.00000000000E+00 -0.16836352262E+02  0.16836352262E+02  0.25500000920E-02 0.  1.
       25    2    1    2    0    0  0.26403582644E+02 -0.32858649403E+02  0.20624789215E+04  0.20666930795E+04  0.12499657300E+03 0.  0.
        6    2    1    2  501    0 -0.26403582644E+02  0.32858649403E+02  0.51252080924E+03  0.54197935575E+03  0.17113504065E+03 0.  0.
       24    2    4    4    0    0  0.14740967886E+02  0.43668207492E+02  0.14504359425E+03  0.17201812248E+03  0.80177189714E+02 0.  0.
      -13    1    5    5    0    0 -0.12753486485E+02 -0.17643014419E+02  0.17793080851E+02  0.28116405630E+02  0.10565999895E+00 0.  1.
       14    1    5    5    0    0  0.27494454371E+02  0.61311221911E+02  0.12725051340E+03  0.14390171685E+03  0.00000000000E+00 0. -1.
        5    1    4    4  501    0 -0.41144550530E+02 -0.10809558089E+02  0.36747721500E+03  0.36996123327E+03  0.46999998093E+01 0. -1.
        5    1    3    3  502    0 -0.69881943517E+01 -0.70346668972E+02  0.77634368811E+03  0.77956981776E+03  0.46999998093E+01 0.  1.
       -5    1    3    3    0  502  0.33391776996E+02  0.37488019569E+02  0.12861352334E+04  0.12871232618E+04  0.46999998093E+01 0.  1.
</event>
<event>
10   0  0.1583500E-03  0.1985504E+03  0.7818609E-02  0.1159773E+00
       21   -1    0    0  501  503  0.00000000000E+00  0.00000000000E+00  0.55393384997E+03  0.55393384997E+03  0.00000000000E+00 0.  1.
        2   -1    0    0  503    0  0.00000000000E+00  0.00000000000E+00 -0.58534831854E+02  0.58534831910E+02  0.25500000920E-02 0.  1.
       25    2    1    2    0    0  0.15565901923E+02 -0.10103933524E+03  0.22958472397E+03  0.28068637602E+03  0.12499780652E+03 0.  0.
        6    2    1    2  501    0 -0.15565901923E+02  0.10103933524E+03  0.26581429414E+03  0.33178230586E+03  0.17020873932E+03 0.  0.
       24    2    4    4    0    0  0.55767725655E+02  0.72501137946E+02  0.16264777942E+03  0.20306426172E+03  0.80089574906E+02 0.  0.
      -13    1    5    5    0    0  0.53132820527E+01  0.31938940387E+02  0.12291088051E+03  0.12710398338E+03  0.10565999895E+00 0.  1.
       14    1    5    5    0    0  0.50454443602E+02  0.40562197559E+02  0.39736898906E+02  0.75960278335E+02  0.00000000000E+00 0. -1.
        5    1    4    4  501    0 -0.71333627578E+02  0.28538197296E+02  0.10316651473E+03  0.12871804414E+03  0.46999998093E+01 0. -1.
        5    1    3    3  502    0  0.45407467155E+02  0.61352710930E+01  0.40916768720E+02  0.61609671201E+02  0.46999998093E+01 0. -1.
       -5    1    3    3    0  502 -0.29841565233E+02 -0.10717460634E+03  0.18866795525E+03  0.21907670482E+03  0.46999998093E+01 0. -1.
</event>
<event>
10   0  0.1583500E-03  0.1763473E+03  0.7818609E-02  0.1184070E+00
       21   -1    0    0  501  503  0.00000000000E+00  0.00000000000E+00  0.16726658666E+02  0.16726658666E+02  0.00000000000E+00 0.  1.
        2   -1    0    0  503    0  0.00000000000E+00  0.00000000000E+00 -0.15356165754E+04  0.15356165754E+04  0.25500000920E-02 0.  1.
       25    2    1    2    0    0  0.34243852080E+02  0.27294612705E+02 -0.86541514712E+03  0.87549195223E+03  0.12500057708E+03 0.  0.
        6    2    1    2  501    0 -0.34243852080E+02 -0.27294612705E+02 -0.65347476962E+03  0.67685128184E+03  0.17082372761E+03 0.  0.
       24    2    4    4    0    0 -0.52906024201E+02 -0.76550716302E+02 -0.41651233648E+03  0.43405975578E+03  0.79159873581E+02 0.  0.
      -11    1    5    5    0    0  0.13887952144E+02 -0.46608797715E+02 -0.15070922315E+03  0.15836200675E+03  0.51099999109E-03 0.  1.
       12    1    5    5    0    0 -0.66793976345E+02 -0.29941918586E+02 -0.26580311332E+03  0.27569774903E+03  0.00000000000E+00 0. -1.
        5    1    4    4  501    0  0.18662172121E+02  0.49256103597E+02 -0.23696243314E+03  0.24279152606E+03  0.46999998093E+01 0. -1.
        5    1    3    3  502    0 -0.12213623844E+02 -0.21906519845E+02 -0.62954604000E+03  0.63006299264E+03  0.46999998093E+01 0.  1.
       -5    1    3    3    0  502  0.46457475924E+02  0.49201132549E+02 -0.23586910712E+03  0.24542895959E+03  0.46999998093E+01 0.  1.
</event>
<event>
10   0  0.1583500E-03  0.2425812E+03  0.7818609E-02  0.1123541E+00
       21   -1    0    0  501  503  0.00000000000E+00  0.00000000000E+00  0.63285287085E+02  0.63285287085E+02  0.00000000000E+00 0. -1.
        2   -1    0    0  503    0  0.00000000000E+00  0.00000000000E+00 -0.12704893386E+04  0.12704893386E+04  0.25500000920E-02 0. -1.
       25    2    1    2    0    0  0.16858975515E+03  0.27621879421E+02 -0.97589300069E+03  0.99858747331E+03  0.12499727709E+03 0.  0.
        6    2    1    2  501    0 -0.16858975515E+03 -0.27621879421E+02 -0.23131105084E+03  0.33518715240E+03  0.17222122729E+03 0.  0.
       24    2    4    4    0    0 -0.16456717706E+03  0.29904118428E+02 -0.18615387100E+03  0.26179313048E+03  0.76848991003E+02 0.  0.
      -11    1    5    5    0    0 -0.12305687121E+03  0.22170515738E+02 -0.17993298416E+03  0.21911276574E+03  0.51099999109E-03 0.  1.
       12    1    5    5    0    0 -0.41510305845E+02  0.77336026895E+01 -0.62208868386E+01  0.42680364748E+02  0.00000000000E+00 0. -1.
        5    1    4    4  501    0 -0.40225780909E+01 -0.57525997849E+02 -0.45157179843E+02  0.73394021913E+02  0.46999998093E+01 0. -1.
        5    1    3    3  502    0 -0.18526221706E+02 -0.75134816485E+01 -0.12183308032E+03  0.12355186262E+03  0.46999998093E+01 0. -1.
       -5    1    3    3    0  502  0.18711597686E+03  0.35135361070E+02 -0.85405992037E+03  0.87503561069E+03  0.46999998093E+01 0. -1.
</event>
<event>
10   0  0.1583500E-03  0.2402299E+03  0.7818609E-02  0.1125233E+00
        2   -1    0    0  503    0  0.00000000000E+00  0.00000000000E+00  0.13769508241E+04  0.13769508241E+04  0.00000000000E+00 0.  1.
       21   -1    0    0  501  503  0.00000000000E+00  0.00000000000E+00 -0.79082263424E+02  0.79082263424E+02  0.25500000920E-02 0.  1.
       25    2    1    2    0    0 -0.73401441892E+02  0.15055943069E+03  0.11607696421E+04  0.11794349635E+04  0.12499902909E+03 0.  0.
        6    2    1    2  501    0  0.73401441892E+02 -0.15055943069E+03  0.13709891865E+03  0.27659812410E+03  0.17220480515E+03 0.  0.
       24    2    4    4    0    0  0.10202547268E+03 -0.45271362136E+02  0.77220273051E+02  0.15204911882E+03  0.68536637342E+02 0.  0.
      -13    1    5    5    0    0  0.34797557988E+02 -0.31656397614E+02  0.68221768683E+02  0.82868681889E+02  0.10565999895E+00 0.  1.
       14    1    5    5    0    0  0.67227914693E+02 -0.13614964522E+02  0.89985043680E+01  0.69180436929E+02  0.00000000000E+00 0. -1.
        5    1    4    4  501    0 -0.28624030788E+02 -0.10528806856E+03  0.59878645602E+02  0.12454900528E+03  0.46999998093E+01 0. -1.
        5    1    3    3  502    0 -0.23532414225E+02 -0.14465827599E+02  0.31608229395E+03  0.31732182596E+03  0.46999998093E+01 0. -1.
       -5    1    3    3    0  502 -0.49869027667E+02  0.16502525829E+03  0.84468734812E+03  0.86211313751E+03  0.46999998093E+01 0. -1.
</event>
<event>
10   0  0.1583500E-03  0.2430127E+03  0.7818609E-02  0.1123263E+00
       -2   -1    0    0    0  501  0.00000000000E+00  0.00000000000E+00  0.15107853331E+03  0.15107853333E+03  0.00000000000E+00 0. -1.
       21   -1    0    0  501  503  0.00000000000E+00  0.00000000000E+00 -0.39689239874E+03  0.39689239874E+03  0.25500000920E-02 0. -1.
       25    2    1    2    0    0 -0.16731300806E+03  0.36493246575E+02 -0.14565578729E+02  0.21251457648E+03  0.12499955767E+03 0.  0.
       -6    2    1    2    0  503  0.16731300806E+03 -0.36493246575E+02 -0.23124828670E+03  0.33545635559E+03  0.17242330670E+03 0.  0.
      -24    2    4    4    0    0  0.14275838281E+03 -0.54317309988E+02 -0.96451669504E+02  0.19720714271E+03  0.79103770822E+02 0.  0.
       11    1    5    5    0    0  0.89258178220E+02  0.75149273228E+01 -0.59105035897E+02  0.10731682897E+03  0.51099999109E-03 0. -1.
      -12    1    5    5    0    0  0.53500204594E+02 -0.61832237311E+02 -0.37346633607E+02  0.89890313740E+02  0.00000000000E+00 0.  1.
       -5    1    4    4    0  503  0.24554625251E+02  0.17824063413E+02 -0.13479661719E+03  0.13824921288E+03  0.46999998093E+01 0.  1.
        5    1    3    3  502    0 -0.40370985357E+01 -0.30145517568E+02  0.13987161928E+02  0.33805045349E+02  0.46999998093E+01 0. -1.
       -5    1    3    3    0  502 -0.16327590953E+03  0.66638764143E+02 -0.28552740657E+02  0.17870953113E+03  0.46999998093E+01 0. -1.
</event>
<event>
10   0  0.1583500E-03  0.1801135E+03  0.7818609E-02  0.1183476E+00
       21   -1    0    0  501  503  0.00000000000E+00  0.00000000000E+00  0.30656170594E+03  0.30656170594E+03  0.00000000000E+00 0. -1.
        2   -1    0    0  503    0  0.00000000000E+00  0.00000000000E+00 -0.30039901509E+03  0.30039901510E+03  0.25500000920E-02 0. -1.
       25    2    1    2    0    0 -0.14658672875E+02  0.55310912051E+01 -0.25807319333E+03  0.28717723102E+03  0.12499407682E+03 0.  0.
        6    2    1    2  501    0  0.14658672875E+02 -0.55310912051E+01  0.26423588419E+03  0.31978349001E+03  0.17943078981E+03 0.  0.
       24    2    4    4    0    0 -0.22081052446E+02 -0.67512225965E+02  0.17026906165E+03  0.20127896597E+03  0.80474811304E+02 0.  0.
      -15    1    5    5    0    0 -0.27997942402E+02 -0.59480328128E-01  0.14832002744E+02  0.31733804545E+02  0.17769999504E+01 0.  1.
       16    1    5    5    0    0  0.59168899568E+01 -0.67452745637E+02  0.15543705891E+03  0.16954516142E+03  0.00000000000E+00 0. -1.
        5    1    4    4  501    0  0.36739725320E+02  0.61981134760E+02  0.93966822537E+02  0.11850452404E+03  0.46999998093E+01 0. -1.
        5    1    3    3  502    0 -0.26538571419E+02  0.55467993029E+02 -0.75594954415E+02  0.97558603694E+02  0.46999998093E+01 0.  1.
       -5    1    3    3    0  502  0.11879898545E+02 -0.49936901824E+02 -0.18247823892E+03  0.18961862733E+03  0.46999998093E+01 0.  1.
</event>
<event>
10   0  0.1583500E-03  0.2138558E+03  0.7818609E-02  0.1146155E+00
       -4   -1    0    0    0  501  0.00000000000E+00  0.00000000000E+00  0.39673207378E+02  0.39693529493E+02  0.00000000000E+00 0.  1.
       21   -1    0    0  501  503  0.00000000000E+00  0.00000000000E+00 -0.97412193680E+03  0.97412193680E+03  0.12699999809E+01 0.  1.
       25    2    1    2    0    0  0.10323688613E+03 -0.73836935834E+02 -0.46479110545E+03  0.49776062521E+03  0.12500048221E+03 0.  0.
       -6    2    1    2    0  503 -0.10323688613E+03  0.73836935834E+02 -0.46965762398E+03  0.51605484109E+03  0.17211788837E+03 0.  0.
      -24    2    4    4    0    0 -0.11561517889E+03  0.10841579853E+03 -0.35982958201E+03  0.40015312118E+03  0.74325886074E+02 0.  0.
       13    1    5    5    0    0  0.10275425373E+02  0.28029765618E+01 -0.19121389759E+02  0.21887890592E+02  0.10565999895E+00 0. -1.
      -14    1    5    5    0    0 -0.12589060427E+03  0.10561282197E+03 -0.34070819225E+03  0.37826523059E+03  0.00000000000E+00 0.  1.
       -5    1    4    4    0  503  0.12378292758E+02 -0.34578862693E+02 -0.10982804196E+03  0.11590171990E+03  0.46999998093E+01 0.  1.
        5    1    3    3  502    0  0.81697351475E+02 -0.37797823564E+02 -0.11842642996E+03  0.14882890182E+03  0.46999998093E+01 0. -1.
       -5    1    3    3    0  502  0.21539534660E+02 -0.36039112271E+02 -0.34636467549E+03  0.34893172339E+03  0.46999998093E+01 0. -1.
</event>
<event>
10   0  0.1583500E-03  0.2737131E+03  0.7818609E-02  0.1103157E+00
       21   -1    0    0  501  503  0.00000000000E+00  0.00000000000E+00  0.40393361678E+02  0.40393361678E+02  0.00000000000E+00 0. -1.
        2   -1    0    0  503    0  0.00000000000E+00  0.00000000000E+00 -0.19238286411E+04  0.19238286411E+04  0.25500000920E-02 0. -1.
       25    2    1    2    0    0  0.12613302770E+03  0.17152143366E+03 -0.12504856051E+04  0.12746249045E+04  0.12500102281E+03 0.  0.
        6    2    1    2  501    0 -0.12613302770E+03 -0.17152143366E+03 -0.63294967435E+03  0.68959709832E+03  0.17201664126E+03 0.  0.
       24    2    4    4    0    0 -0.48877372199E+02 -0.77033241523E+02 -0.16017356636E+03  0.20129822156E+03  0.80884391758E+02 0.  0.
      -13    1    5    5    0    0 -0.16885080661E+02  0.13635209634E+02 -0.53252536135E+02  0.57505379397E+02  0.10565999895E+00 0.  1.
       14    1    5    5    0    0 -0.31992291538E+02 -0.90668451157E+02 -0.10692103023E+03  0.14379284216E+03  0.00000000000E+00 0. -1.
        5    1    4    4  501    0 -0.77255655501E+02 -0.94488192132E+02 -0.47277610799E+03  0.48829887676E+03  0.46999998093E+01 0. -1.
        5    1    3    3  502    0  0.15031989872E+03  0.15589755215E+03 -0.11369084016E+04  0.11573603252E+04  0.46999998093E+01 0. -1.
       -5    1    3    3    0  502 -0.24186871022E+02  0.15623881511E+02 -0.11357720351E+03  0.11726457930E+03  0.46999998093E+01 0. -1.
</event>
<event>
10   0  0.1583500E-03  0.2003978E+03  0.7818609E-02  0.1158850E+00
        2   -1    0    0  503    0  0.00000000000E+00  0.00000000000E+00  0.21433003187E+04  0.21433003187E+04  0.00000000000E+00 0.  1.
       21   -1    0    0  501  503  0.00000000000E+00  0.00000000000E+00 -0.15194259043E+02  0.15194259043E+02  0.25500000920E-02 0. -1.
       25    2    1    2    0    0 -0.74455275077E+02 -0.67728540653E+02  0.96436811122E+03  0.97762824985E+03  0.12498158966E+03 0.  0.
        6    2    1    2  501    0  0.74455275077E+02  0.67728540653E+02  0.11637379485E+04  0.11808663279E+04  0.17328741594E+03 0.  0.
       24    2    4    4    0    0  0.47527178242E+02  0.95850556979E+02  0.10788092565E+04  0.10873198533E+04  0.83599578207E+02 0.  0.
      -15    1    5    5    0    0 -0.14019915216E+02  0.26938090443E+02  0.11044771835E+03  0.11456035508E+03  0.17769999504E+01 0.  1.
       16    1    5    5    0    0  0.61547093458E+02  0.68912466535E+02  0.96836153819E+03  0.97275949824E+03  0.00000000000E+00 0. -1.
        5    1    4    4  501    0  0.26928096836E+02 -0.28122016325E+02  0.84928691930E+02  0.93546474613E+02  0.46999998093E+01 0. -1.
        5    1    3    3  502    0 -0.37743103695E+02 -0.10254243214E+03  0.68518372965E+03  0.69385756870E+03  0.46999998093E+01 0.  1.
       -5    1    3    3    0  502 -0.36712171383E+02  0.34813891488E+02  0.27918438157E+03  0.28377068115E+03  0.46999998093E+01 0.  1.
</event>
<event>
10   0  0.1583500E-03  0.2331374E+03  0.7818609E-02  0.1129488E+00
        2   -1    0    0  503    0  0.00000000000E+00  0.00000000000E+00  0.21422841971E+04  0.21422841971E+04  0.00000000000E+00 0. -1.
       21   -1    0    0  501  503  0.00000000000E+00  0.00000000000E+00 -0.39444767497E+02  0.39444767497E+02  0.25500000920E-02 0.  1.
       25    2    1    2    0    0 -0.41834727262E+02  0.15813614108E+03  0.17285687116E+04  0.17407849708E+04  0.12500136172E+03 0.  0.
        6    2    1    2  501    0  0.41834727262E+02 -0.15813614108E+03  0.37427071800E+03  0.44094399376E+03  0.16611999207E+03 0.  0.
       24    2    4    4    0    0  0.37096092383E+01 -0.53477113739E+02  0.27481154545E+03  0.29154100306E+03  0.81247818803E+02 0.  0.
      -11    1    5    5    0    0  0.41628652029E+01 -0.37158873109E+02  0.35133420752E+02  0.51307587659E+02  0.51099999109E-03 0.  1.
       12    1    5    5    0    0 -0.45325596460E+00 -0.16318240631E+02  0.23967812469E+03  0.24023341540E+03  0.00000000000E+00 0. -1.
        5    1    4    4  501    0  0.38125118024E+02 -0.10465902734E+03  0.99459172551E+02  0.14940299070E+03  0.46999998093E+01 0. -1.
        5    1    3    3  502    0  0.41266172811E+02  0.70371695445E+02  0.85215842856E+03  0.85606725782E+03  0.46999998093E+01 0. -1.
       -5    1    3    3    0  502 -0.83100900073E+02  0.87764445633E+02  0.87641028304E+03  0.88471771301E+03  0.46999998093E+01 0. -1.
</event>
<event>
10   0  0.1583500E-03  0.1780827E+03  0.7818609E-02  0.1182163E+00
       21   -1    0    0  501  503  0.00000000000E+00  0.00000000000E+00  0.18604377210E+03  0.18604377210E+03  0.00000000000E+00 0.  1.
        2   -1    0    0  503    0  0.00000000000E+00  0.00000000000E+00 -0.35005438791E+03  0.35005438792E+03  0.25500000920E-02 0.  1.
       25    2    1    2    0    0 -0.34537380594E+02 -0.34564194383E+02 -0.28892258024E+03  0.31857473422E+03  0.12500435880E+03 0.  0.
        6    2    1    2  501    0  0.34537380594E+02  0.34564194383E+02  0.12491196443E+03  0.21752342580E+03  0.17124814662E+03 0.  0.
       24    2    4    4    0    0  0.69623623404E+02  0.50087233303E+02  0.39888454242E+02  0.12412590734E+03  0.80373952343E+02 0.  0.
      -15    1    5    5    0    0  0.60863741702E+02  0.56938959330E+02  0.67611338548E+00  0.83366989880E+02  0.17769999504E+01 0.  1.
       16    1    5    5    0    0  0.87598817016E+01 -0.68517260269E+01  0.39212340857E+02  0.40758917459E+02  0.00000000000E+00 0. -1.
        5    1    4    4  501    0 -0.35086242810E+02 -0.15523038920E+02  0.85023510184E+02  0.93397518458E+02  0.46999998093E+01 0. -1.
        5    1    3    3  502    0 -0.48961840372E+02 -0.38427055102E+02 -0.52293865592E+02  0.81428734198E+02  0.46999998093E+01 0.  1.
       -5    1    3    3    0  502  0.14424459778E+02  0.38628607193E+01 -0.23662871465E+03  0.23714600002E+03  0.46999998093E+01 0.  1.
</event>
<event>
10   0  0.1583500E-03  0.2197351E+03  0.7818609E-02  0.1141186E+00
       21   -1    0    0  501  503  0.00000000000E+00  0.00000000000E+00  0.39891002294E+02  0.39891002294E+02  0.00000000000E+00 0. -1.
        2   -1    0    0  503    0  0.00000000000E+00  0.00000000000E+00 -0.18533255537E+04  0.18533255537E+04  0.25500000920E-02 0. -1.
       25    2    1    2    0    0 -0.86172000941E+02 -0.10569352792E+03 -0.14945529782E+04  0.15059583056E+04  0.12500031249E+03 0.  0.
        6    2    1    2  501    0  0.86172000941E+02  0.10569352792E+03 -0.31888157320E+03  0.38725825034E+03  0.17229845948E+03 0.  0.
       24    2    4    4    0    0  0.71341334874E+02  0.63565298113E+02 -0.91984979898E+02  0.15595997872E+03  0.82049651127E+02 0.  0.
      -15    1    5    5    0    0  0.37910118428E+02 -0.14200370381E+02 -0.21878043312E+02  0.46050343171E+02  0.17769999504E+01 0.  1.
       16    1    5    5    0    0  0.33431216446E+02  0.77765668494E+02 -0.70106936586E+02  0.10990963555E+03  0.00000000000E+00 0. -1.
        5    1    4    4  501    0  0.14830666067E+02  0.42128229806E+02 -0.22689659330E+03  0.23129827162E+03  0.46999998093E+01 0. -1.
        5    1    3    3  502    0 -0.40684127475E+01 -0.12807424737E+01 -0.90787526386E+00  0.64114365995E+01  0.46999998093E+01 0.  1.
       -5    1    3    3    0  502 -0.82103588193E+02 -0.10441278545E+03 -0.14936451029E+04  0.14995468690E+04  0.46999998093E+01 0.  1.
</event>
<event>
10   0  0.1583500E-03  0.3001017E+03  0.7818609E-02  0.1088276E+00
       21   -1    0    0  501  503  0.00000000000E+00  0.00000000000E+00  0.39494534931E+02  0.39494534931E+02  0.00000000000E+00 0.  1.
        2   -1    0    0  503    0  0.00000000000E+00  0.00000000000E+00 -0.23572932537E+04  0.23572932537E+04  0.25500000920E-02 0. -1.
       25    2    1    2    0    0 -0.19561899548E+03  0.15011687137E+03 -0.15088595992E+04  0.15339763685E+04  0.12499737045E+03 0.  0.
        6    2    1    2  501    0  0.19561899548E+03 -0.15011687137E+03 -0.80893911961E+03  0.86281142015E+03  0.17105315268E+03 0.  0.
       24    2    4    4    0    0  0.57550335375E+02 -0.12202040734E+03 -0.40865542593E+03  0.43842775927E+03  0.83777216769E+02 0.  0.
      -11    1    5    5    0    0  0.37328232682E+02 -0.12930070571E+03 -0.37575806090E+03  0.39913179501E+03  0.51099999109E-03 0.  1.
       12    1    5    5    0    0  0.20222102693E+02  0.72802983730E+01 -0.32897365028E+02  0.39295964265E+02  0.00000000000E+00 0. -1.
        5    1    4    4  501    0  0.13806866011E+03 -0.28096464027E+02 -0.40028369368E+03  0.42438366088E+03  0.46999998093E+01 0. -1.
        5    1    3    3  502    0 -0.12452088459E+03  0.14550348279E+03 -0.85329952880E+03  0.87453924443E+03  0.46999998093E+01 0.  1.
       -5    1    3    3    0  502 -0.71098110896E+02  0.46133885802E+01 -0.65556007036E+03  0.65943712405E+03  0.46999998093E+01 0.  1.
</event>
<event>
10   0  0.1583500E-03  0.1884741E+03  0.7818609E-02  0.1172275E+00
       21   -1    0    0  501  503  0.00000000000E+00  0.00000000000E+00  0.17969292081E+03  0.17969292081E+03  0.00000000000E+00 0.  1.
        2   -1    0    0  503    0  0.00000000000E+00  0.00000000000E+00 -0.15334168892E+03  0.15334168894E+03  0.25500000920E-02 0.  1.
       25    2    1    2    0    0 -0.47768649300E+02 -0.46148410699E+02 -0.65828135695E+01  0.14170467080E+03  0.12500144250E+03 0.  0.
        6    2    1    2  501    0  0.47768649300E+02  0.46148410699E+02  0.32934045460E+02  0.19132993894E+03  0.17638303354E+03 0.  0.
       24    2    4    4    0    0  0.70604420873E+02  0.89385067572E+02  0.26903116713E+02  0.14183910079E+03  0.80124142885E+02 0.  0.
      -13    1    5    5    0    0  0.42896671506E+02  0.79553928360E+02 -0.14006178718E+02  0.91461118243E+02  0.10565999895E+00 0.  1.
       14    1    5    5    0    0  0.27707749367E+02  0.98311392121E+01  0.40909295431E+02  0.50377982550E+02  0.00000000000E+00 0. -1.
        5    1    4    4  501    0 -0.22835771573E+02 -0.43236656874E+02  0.60309287472E+01  0.49490838149E+02  0.46999998093E+01 0. -1.
        5    1    3    3  502    0 -0.54295140885E+02 -0.79010999422E+02  0.20762164938E+02  0.98203145798E+02  0.46999998093E+01 0. -1.
       -5    1    3    3    0  502  0.65264915849E+01  0.32862588723E+02 -0.27344978508E+02  0.43501525005E+02  0.46999998093E+01 0. -1.
</event>
<event>
10   0  0.1583500E-03  0.2066798E+03  0.7818609E-02  0.1152729E+00
       21   -1    0    0  501  503  0.00000000000E+00  0.00000000000E+00  0.12829803234E+03  0.12829803234E+03  0.00000000000E+00 0. -1.
        2   -1    0    0  503    0  0.00000000000E+00  0.00000000000E+00 -0.78545208572E+03  0.78545208573E+03  0.25500000920E-02 0. -1.
       25    2    1    2    0    0  0.45395736251E+02 -0.10405676692E+03 -0.68472547527E+03  0.70523944034E+03  0.12500043249E+03 0.  0.
        6    2    1    2  501    0 -0.45395736251E+02  0.10405676692E+03  0.27571421888E+02  0.20851067773E+03  0.17270765996E+03 0.  0.
       24    2    4    4    0    0 -0.32502353982E+02  0.35162276012E+02 -0.46219331567E+02  0.10662910198E+03  0.83311164373E+02 0.  0.
      -15    1    5    5    0    0 -0.32579007248E+02 -0.17282869465E+02 -0.38973124946E+02  0.53685673015E+02  0.17769999504E+01 0.  1.
       16    1    5    5    0    0  0.76653266022E-01  0.52445145477E+02 -0.72462066208E+01  0.52943428962E+02  0.00000000000E+00 0. -1.
        5    1    4    4  501    0 -0.12893382269E+02  0.68894490913E+02  0.73790753455E+02  0.10188157575E+03  0.46999998093E+01 0. -1.
        5    1    3    3  502    0 -0.11466438756E+02  0.14719081731E+02 -0.25597842197E+03  0.25670055141E+03  0.46999998093E+01 0.  1.
       -5    1    3    3    0  502  0.56862175007E+02 -0.11877584865E+03 -0.42874705330E+03  0.44853888893E+03  0.46999998093E+01 0.  1.
</event>
<event>
10   0  0.1583500E-03  0.3484256E+03  0.7818609E-02  0.1065392E+00
       21   -1    0    0  501  503  0.00000000000E+00  0.00000000000E+00  0.58682244217E+02  0.58682244217E+02  0.00000000000E+00 0.  1.
        2   -1    0    0  503    0  0.00000000000E+00  0.00000000000E+00 -0.23291903951E+04  0.23291903951E+04  0.25500000920E-02 0. -1.
       25    2    1    2    0    0  0.30079914029E+03 -0.41871157964E+02 -0.15875803315E+04  0.16211974862E+04  0.12504664635E+03 0.  0.
        6    2    1    2  501    0 -0.30079914029E+03  0.41871157964E+02 -0.68292781943E+03  0.76667515312E+03  0.17078368541E+03 0.  0.
       24    2    4    4    0    0 -0.24164666889E+03 -0.24232279037E+02 -0.55374544021E+03  0.60989869968E+03  0.79762744335E+02 0.  0.
      -15    1    5    5    0    0 -0.11761798905E+03 -0.64904641656E+01 -0.17493936011E+03  0.21091006358E+03  0.17769999504E+01 0.  1.
       16    1    5    5    0    0 -0.12402867984E+03 -0.17741814871E+02 -0.37880608010E+03  0.39898863610E+03  0.00000000000E+00 0. -1.
        5    1    4    4  501    0 -0.59152471398E+02  0.66103437001E+02 -0.12918237921E+03  0.15677645344E+03  0.46999998093E+01 0. -1.
        5    1    3    3  502    0  0.45820756151E+02  0.31483967372E+02 -0.42919987932E+03  0.43281105381E+03  0.46999998093E+01 0. -1.
       -5    1    3    3    0  502  0.25497838414E+03 -0.73355125336E+02 -0.11583804522E+04  0.11883864324E+04  0.46999998093E+01 0. -1.
</event>
<event>
10   0  0.1583500E-03  0.2213952E+03  0.7818609E-02  0.1139651E+00
       -4   -1    0    0    0  501  0.00000000000E+00  0.00000000000E+00  0.38977374021E+03  0.38977580923E+03  0.00000000000E+00 0.  1.
       21   -1    0    0  501  503  0.00000000000E+00  0.00000000000E+00 -0.29215315733E+03  0.29215315733E+03  0.12699999809E+01 0. -1.
       25    2    1    2    0    0 -0.98628845310E+02 -0.99312615724E+02  0.31818852498E+03  0.36941331391E+03  0.12502645438E+03 0.  0.
       -6    2    1    2    0  503  0.98628845310E+02  0.99312615724E+02 -0.22056794210E+03  0.31251565265E+03  0.17153766730E+03 0.  0.
      -24    2    4    4    0    0  0.76946924704E+02  0.26321234146E+02 -0.48997067551E+02  0.12474850308E+03  0.80918723451E+02 0.  0.
       11    1    5    5    0    0  0.61659222411E+02  0.41520362024E+02 -0.64320170200E+02  0.98299971850E+02  0.51099999109E-03 0. -1.
      -12    1    5    5    0    0  0.15287702293E+02 -0.15199127878E+02  0.15323102649E+02  0.26448531234E+02  0.00000000000E+00 0.  1.
       -5    1    4    4    0  503  0.21681920606E+02  0.72991381578E+02 -0.17157087455E+03  0.18776714957E+03  0.46999998093E+01 0.  1.
        5    1    3    3  502    0  0.14291191639E+02 -0.19395485870E+02  0.14809481249E+03  0.15011524411E+03  0.46999998093E+01 0. -1.
       -5    1    3    3    0  502 -0.11292003695E+03 -0.79917129854E+02  0.17009371249E+03  0.21929806980E+03  0.46999998093E+01 0. -1.
</event>
<event>
10   0  0.1583500E-03  0.1948036E+03  0.7818609E-02  0.1164417E+00
       21   -1    0    0  501  503  0.00000000000E+00  0.00000000000E+00  0.50224556533E+03  0.50224556533E+03  0.00000000000E+00 0. -1.
       -2   -1    0    0    0  501  0.00000000000E+00  0.00000000000E+00 -0.16077632967E+03  0.16077632969E+03  0.25500000920E-02 0. -1.
       25    2    1    2    0    0 -0.78654540752E+02 -0.41912608525E+02 -0.98124237497E+02  0.18219877756E+03  0.12499930010E+03 0.  0.
       -6    2    1    2    0  503  0.78654540752E+02  0.41912608525E+02  0.43959347316E+03  0.48082311746E+03  0.17322022140E+03 0.  0.
      -24    2    4    4    0    0 -0.23879357661E+02  0.82019818592E+01  0.24089367069E+03  0.25465214635E+03  0.78615894269E+02 0.  0.
       11    1    5    5    0    0  0.24865639514E+02 -0.12970989795E+02  0.10653603986E+03  0.11016566795E+03  0.51099999109E-03 0. -1.
      -12    1    5    5    0    0 -0.48744997175E+02  0.21172971654E+02  0.13435763083E+03  0.14448647840E+03  0.00000000000E+00 0.  1.
       -5    1    4    4    0  503  0.10253389841E+03  0.33710626666E+02  0.19869980247E+03  0.22617097111E+03  0.46999998093E+01 0.  1.
        5    1    3    3  502    0  0.20254330278E+02 -0.28275113020E+02  0.84348613573E+01  0.36096492844E+02  0.46999998093E+01 0.  1.
       -5    1    3    3    0  502 -0.98908871030E+02 -0.13637495506E+02 -0.10655909885E+03  0.14610228471E+03  0.46999998093E+01 0.  1.
</event>
<event>
10   0  0.1583500E-03  0.2470493E+03  0.7818609E-02  0.1120228E+00
       21   -1    0    0  501  503  0.00000000000E+00  0.00000000000E+00  0.88255426925E+03  0.88255426925E+03  0.00000000000E+00 0. -1.
       -2   -1    0    0    0  501  0.00000000000E+00  0.00000000000E+00 -0.79577115771E+02  0.79577115812E+02  0.25500000920E-02 0. -1.
       25    2    1    2    0    0 -0.17817578316E+03  0.32931604550E+00  0.15096035807E+03  0.26488017274E+03  0.12500303216E+03 0.  0.
       -6    2    1    2    0  503  0.17817578316E+03 -0.32931604550E+00  0.65201679541E+03  0.69725121232E+03  0.17113337909E+03 0.  0.
      -24    2    4    4    0    0  0.13929292426E+03  0.43790669587E+02  0.58413570090E+03  0.60731577527E+03  0.79358631117E+02 0.  0.
       11    1    5    5    0    0  0.67683042826E+02  0.60486238893E+02  0.27667906159E+03  0.29118874035E+03  0.51099999109E-03 0. -1.
      -12    1    5    5    0    0  0.71609881435E+02 -0.16695569306E+02  0.30745663931E+03  0.31612703492E+03  0.00000000000E+00 0.  1.
       -5    1    4    4    0  503  0.38882858894E+02 -0.44119985632E+02  0.67881094510E+02  0.89935437054E+02  0.46999998093E+01 0.  1.
        5    1    3    3  502    0 -0.12212716931E+03  0.14888026116E+02  0.24252006924E+02  0.12548684650E+03  0.46999998093E+01 0.  1.
       -5    1    3    3    0  502 -0.56048613845E+02 -0.14558710070E+02  0.12670835114E+03  0.13939332624E+03  0.46999998093E+01 0.  1.
</event>
<event>
10   0  0.1583500E-03  0.1689735E+03  0.7818609E-02  0.1186894E+00
       21   -1    0    0  501  503  0.00000000000E+00  0.00000000000E+00  0.22502184246E+03  0.22502184246E+03  0.00000000000E+00 0. -1.
       -4   -1    0    0    0  501  0.00000000000E+00  0.00000000000E+00 -0.90349248936E+03  0.90349338195E+03  0.12699999809E+01 0. -1.
       25    2    1    2    0    0 -0.65533135960E+02 -0.82457792652E+01 -0.86520417898E+03  0.87667906554E+03  0.12500131132E+03 0.  0.
       -6    2    1    2    0  503  0.65533135960E+02  0.82457792652E+01  0.18673353209E+03  0.25183615888E+03  0.15552959245E+03 0.  0.
      -24    2    4    4    0    0  0.84705851711E+02  0.18860425759E+02  0.78113061535E+02  0.14092736585E+03  0.78918154371E+02 0.  0.
       15    1    5    5    0    0 -0.15057576805E+02  0.74219359793E+01  0.11208276981E+02  0.20263241464E+02  0.17769999504E+01 0. -1.
      -16    1    5    5    0    0  0.99763428517E+02  0.11438489780E+02  0.66904784554E+02  0.12066412439E+03  0.00000000000E+00 0.  1.
       -5    1    4    4    0  503 -0.19172715751E+02 -0.10614646494E+02  0.10862047055E+03  0.11090879303E+03  0.46999998093E+01 0.  1.
        5    1    3    3  502    0 -0.73059596811E+02 -0.54020923967E+00 -0.23010832906E+03  0.24147449061E+03  0.46999998093E+01 0.  1.
       -5    1    3    3    0  502  0.75264608514E+01 -0.77055700255E+01 -0.63509584992E+03  0.63520457493E+03  0.46999998093E+01 0.  1.
</event>
<event>
10   0  0.1583500E-03  0.5646812E+03  0.7818609E-02  0.9988527E-01
        2   -1    0    0  503    0  0.00000000000E+00  0.00000000000E+00  0.21048024576E+04  0.21048024576E+04  0.00000000000E+00 0.  1.
       21   -1    0    0  501  503  0.00000000000E+00  0.00000000000E+00 -0.15245981274E+03  0.15245981274E+03  0.25500000920E-02 0. -1.
       25    2    1    2    0    0  0.38954217363E+03  0.37104873118E+03  0.11544782898E+04  0.12797898210E+04  0.12498639316E+03 0.  0.
        6    2    1    2  501    0 -0.38954217363E+03 -0.37104873118E+03  0.79786435503E+03  0.97747244927E+03  0.17159427176E+03 0.  0.
       24    2    4    4    0    0 -0.28691514534E+03 -0.24604829872E+03  0.44302883114E+03  0.58748814950E+03  0.77509448799E+02 0.  0.
      -13    1    5    5    0    0 -0.42077335818E+02 -0.51060186736E+02  0.40441834728E+02  0.77544812974E+02  0.10565999895E+00 0.  1.
       14    1    5    5    0    0 -0.24483780953E+03 -0.19498811199E+03  0.40258699641E+03  0.50994333653E+03  0.00000000000E+00 0. -1.
        5    1    4    4  501    0 -0.10262702828E+03 -0.12500043246E+03  0.35483552389E+03  0.38998429976E+03  0.46999998093E+01 0. -1.
        5    1    3    3  502    0  0.73281042297E+02  0.17137393653E+02  0.20150831318E+03  0.21515457630E+03  0.46999998093E+01 0. -1.
       -5    1    3    3    0  502  0.31626113133E+03  0.35391133753E+03  0.95296997662E+03  0.10646352447E+04  0.46999998093E+01 0. -1.
</event>
<event>
10   0  0.1583500E-03  0.1806973E+03  0.7818609E-02  0.1179245E+00
       21   -1    0    0  501  503  0.00000000000E+00  0.00000000000E+00  0.65542700548E+03  0.65542700548E+03  0.00000000000E+00 0. -1.
       -2   -1    0    0    0  501  0.00000000000E+00  0.00000000000E+00 -0.40276900582E+02  0.40276900662E+02  0.25500000920E-02 0. -1.
       25    2    1    2    0    0 -0.53991395269E+02 -0.16621698317E+02  0.19570051941E+03  0.23898795968E+03  0.12500079981E+03 0.  0.
       -6    2    1    2    0  503  0.53991395269E+02  0.16621698317E+02  0.41944958548E+03  0.45671594647E+03  0.17163959152E+03 0.  0.
      -24    2    4    4    0    0 -0.17656028136E+02 -0.30980123376E+02  0.14156779252E+03  0.16578697306E+03  0.78564477870E+02 0.  0.
       15    1    5    5    0    0 -0.13015303168E+02 -0.40095965810E+02  0.14787029842E+03  0.15377212841E+03  0.17769999504E+01 0. -1.
      -16    1    5    5    0    0 -0.46407249679E+01  0.91158424338E+01 -0.63025058973E+01  0.12014844655E+02  0.00000000000E+00 0.  1.
       -5    1    4    4    0  503  0.71647423405E+02  0.47601821693E+02  0.27788179296E+03  0.29092897341E+03  0.46999998093E+01 0.  1.
        5    1    3    3  502    0 -0.86359424436E+02 -0.28566484573E+01  0.79570157510E+02  0.11755683984E+03  0.46999998093E+01 0. -1.
       -5    1    3    3    0  502  0.32368029167E+02 -0.13765049859E+02  0.11613036191E+03  0.12143111983E+03  0.46999998093E+01 0. -1.
</event>
<event>
10   0  0.1583500E-03  0.1829288E+03  0.7818609E-02  0.1176553E+00
       21   -1    0    0  501  503  0.00000000000E+00  0.00000000000E+00  0.34459238985E+02  0.34459238985E+02  0.00000000000E+00 0.  1.
       -2   -1    0    0    0  501  0.00000000000E+00  0.00000000000E+00 -0.80906078498E+03  0.80906078499E+03  0.25500000920E-02 0.  1.
       25    2    1    2    0    0  0.62327035970E+02  0.15107293982E+02 -0.44382282282E+03  0.46552859225E+03  0.12500112960E+03 0.  0.
       -6    2    1    2    0  503 -0.62327035970E+02 -0.15107293982E+02 -0.33077872318E+03  0.37799143172E+03  0.17131861838E+03 0.  0.
      -24    2    4    4    0    0 -0.41716902670E+01 -0.67201786544E+02 -0.18463342674E+03  0.21223130968E+03  0.80119557073E+02 0.  0.
       13    1    5    5    0    0 -0.40176689763E+02 -0.49436246726E+02 -0.12571035891E+03  0.14092982081E+03  0.10565999895E+00 0. -1.
      -14    1    5    5    0    0  0.36004999496E+02 -0.17765539818E+02 -0.58923067828E+02  0.71301488877E+02  0.00000000000E+00 0.  1.
       -5    1    4    4    0  503 -0.58155345703E+02  0.52094492563E+02 -0.14614529643E+03  0.16576012204E+03  0.46999998093E+01 0.  1.
        5    1    3    3  502    0  0.91547602072E+02  0.33949382179E+02 -0.24767706473E+03  0.26626967981E+03  0.46999998093E+01 0.  1.
       -5    1    3    3    0  502 -0.29220566103E+02 -0.18842088197E+02 -0.19614575810E+03  0.19925891244E+03  0.46999998093E+01 0.  1.
</event>
<event>
10   0  0.1583500E-03  0.2002389E+03  0.7818609E-02  0.1158006E+00
        4   -1    0    0  503    0  0.00000000000E+00  0.00000000000E+00  0.15497285105E+03  0.15497805477E+03  0.00000000000E+00 0.  1.
       21   -1    0    0  501  503  0.00000000000E+00  0.00000000000E+00 -0.23259324955E+03  0.23259324955E+03  0.12699999809E+01 0. -1.
       25    2    1    2    0    0  0.48010125562E+02  0.94774613445E+02  0.19165227348E+02  0.16516836453E+03  0.12500433269E+03 0.  0.
        6    2    1    2  501    0 -0.48010125562E+02 -0.94774613445E+02 -0.96785625850E+02  0.22240293980E+03  0.16973040608E+03 0.  0.
       24    2    4    4    0    0  0.36900269006E+02 -0.39896182824E+02 -0.33373317228E+02  0.10296832113E+03  0.80841583339E+02 0.  0.
      -11    1    5    5    0    0  0.69732823991E+01 -0.40797033756E+02  0.16696418212E+02  0.44629530717E+02  0.51099999109E-03 0.  1.
       12    1    5    5    0    0  0.29926986606E+02  0.90085093182E+00 -0.50069735440E+02  0.58338790412E+02  0.00000000000E+00 0. -1.
        5    1    4    4  501    0 -0.84910394567E+02 -0.54878430621E+02 -0.63412308622E+02  0.11943461867E+03  0.46999998093E+01 0. -1.
        5    1    3    3  502    0 -0.42050965399E+02  0.35438162994E+02 -0.16922075988E+01  0.55218662173E+02  0.46999998093E+01 0.  1.
       -5    1    3    3    0  502  0.90061090961E+02  0.59336450451E+02  0.20857434947E+02  0.10994970236E+03  0.46999998093E+01 0.  1.
</event>
<event>
10   0  0.1583500E-03  0.2492977E+03  0.7818609E-02  0.1119019E+00
       21   -1    0    0  501  503  0.00000000000E+00  0.00000000000E+00  0.71611683326E+02  0.71611683326E+02  0.00000000000E+00 0. -1.
        4   -1    0    0  503    0  0.00000000000E+00  0.00000000000E+00 -0.14972791598E+04  0.14972796984E+04  0.12699999809E+01 0.  1.
       25    2    1    2    0    0 -0.16042639955E+03  0.79399811807E+02 -0.12373427339E+04  0.12564564751E+04  0.12499949177E+03 0.  0.
        6    2    1    2  501    0  0.16042639955E+03 -0.79399811807E+02 -0.18832474262E+03  0.31243490666E+03  0.17351772945E+03 0.  0.
       24    2    4    4    0    0  0.12877706416E+03 -0.27691742993E+02 -0.52570282587E+02  0.16368421514E+03  0.81722229490E+02 0.  0.
      -13    1    5    5    0    0  0.57716043860E+02  0.21255366089E+02 -0.46647159909E+02  0.77193918142E+02  0.10565999895E+00 0.  1.
       14    1    5    5    0    0  0.71061020297E+02 -0.48947109082E+02 -0.59231226781E+01  0.86490297001E+02  0.00000000000E+00 0. -1.
        5    1    4    4  501    0  0.31649335389E+02 -0.51708068814E+02 -0.13575446003E+03  0.14875069152E+03  0.46999998093E+01 0. -1.
        5    1    3    3  502    0 -0.12511644213E+03  0.30250148418E+01 -0.55654930652E+03  0.57046690999E+03  0.46999998093E+01 0. -1.
       -5    1    3    3    0  502 -0.35309957419E+02  0.76374796965E+02 -0.68079342735E+03  0.68598956510E+03  0.46999998093E+01 0. -1.
</event>
<event>
10   0  0.1583500E-03  0.2939165E+03  0.7818609E-02  0.1091714E+00
       21   -1    0    0  501  503  0.00000000000E+00  0.00000000000E+00  0.41221820695E+02  0.41221820695E+02  0.00000000000E+00 0. -1.
        2   -1    0    0  503    0  0.00000000000E+00  0.00000000000E+00 -0.22576683026E+04  0.22576683026E+04  0.25500000920E-02 0.  1.
       25    2    1    2    0    0 -0.17920877080E+03  0.15640674686E+03 -0.15103024835E+04  0.15340200280E+04  0.12500000224E+03 0.  0.
        6    2    1    2  501    0  0.17920877080E+03 -0.15640674686E+03 -0.70614399838E+03  0.76487009530E+03  0.17265011508E+03 0.  0.
       24    2    4    4    0    0  0.17105243794E+03 -0.63379310915E+02 -0.44211555813E+03  0.48477415305E+03  0.79145051308E+02 0.  0.
      -15    1    5    5    0    0  0.10708706051E+01 -0.19091224009E+02 -0.20810777984E+02  0.28317270475E+02  0.17769999504E+01 0.  1.
       16    1    5    5    0    0  0.16998156734E+03 -0.44288086906E+02 -0.42130478015E+03  0.45645688258E+03  0.00000000000E+00 0. -1.
        5    1    4    4  501    0  0.81563328599E+01 -0.93027435948E+02 -0.26402844025E+03  0.28009594225E+03  0.46999998093E+01 0. -1.
        5    1    3    3  502    0 -0.16513629286E+03  0.10229983787E+03 -0.13556550718E+04  0.13695101372E+04  0.46999998093E+01 0. -1.
       -5    1    3    3    0  502 -0.14072477941E+02  0.54106908988E+02 -0.15464741165E+03  0.16450989078E+03  0.46999998093E+01 0. -1.
</event>
<event>
10   0  0.1583500E-03  0.2029550E+03  0.7818609E-02  0.1155347E+00
        2   -1    0    0  503    0  0.00000000000E+00  0.00000000000E+00  0.84715206965E+03  0.84715206965E+03  0.00000000000E+00 0. -1.
       21   -1    0    0  501  503  0.00000000000E+00  0.00000000000E+00 -0.41484084240E+02  0.41484084240E+02  0.25500000920E-02 0. -1.
       25    2    1    2    0    0 -0.11123088221E+03  0.10832001632E+02  0.43216893551E+03  0.46355701690E+03  0.12500191069E+03 0.  0.
        6    2    1    2  501    0  0.11123088221E+03 -0.10832001632E+02  0.37349904990E+03  0.42507913700E+03  0.16941396347E+03 0.  0.
       24    2    4    4    0    0  0.39166912058E+02  0.46403380638E+02  0.12098732698E+03  0.15627927653E+03  0.78089424685E+02 0.  0.
      -11    1    5    5    0    0  0.37274570089E+02  0.63163588964E+02  0.11831385018E+03  0.13920201037E+03  0.51099999109E-03 0.  1.
       12    1    5    5    0    0  0.18923419692E+01 -0.16760208326E+02  0.26734767988E+01  0.17077266158E+02  0.00000000000E+00 0. -1.
        5    1    4    4  501    0  0.72063970156E+02 -0.57235382270E+02  0.25251172292E+03  0.26879986047E+03  0.46999998093E+01 0. -1.
        5    1    3    3  502    0 -0.96680235372E+02  0.59196283943E+02  0.33888219037E+03  0.35737165094E+03  0.46999998093E+01 0. -1.
       -5    1    3    3    0  502 -0.14550646842E+02 -0.48364282311E+02  0.93286745138E+02  0.10618536596E+03  0.46999998093E+01 0. -1.
</event>
<event>
10   0  0.1583500E-03  0.2068375E+03  0.7818609E-02  0.1151885E+00
       -4   -1    0    0    0  501  0.00000000000E+00  0.00000000000E+00  0.18722624472E+04  0.18722628779E+04  0.00000000000E+00 0.  1.
       21   -1    0    0  501  503  0.00000000000E+00  0.00000000000E+00 -0.29084107169E+02  0.29084107169E+02  0.12699999809E+01 0.  1.
       25    2    1    2    0    0  0.99274078197E+02 -0.63688585290E+02  0.14196048840E+04  0.14299700529E+04  0.12499898878E+03 0.  0.
       -6    2    1    2    0  503 -0.99274078197E+02  0.63688585290E+02  0.42357345607E+03  0.47137693218E+03  0.16991221559E+03 0.  0.
      -24    2    4    4    0    0 -0.84858967173E+02  0.55443843110E+02  0.17490657929E+03  0.22211185880E+03  0.92012511617E+02 0.  0.
       15    1    5    5    0    0  0.54952318581E+00 -0.11952704586E+02 -0.39832109449E+01  0.12735494529E+02  0.17769999504E+01 0. -1.
      -16    1    5    5    0    0 -0.85408490358E+02  0.67396547696E+02  0.17888979024E+03  0.20937636428E+03  0.00000000000E+00 0.  1.
       -5    1    4    4    0  503 -0.14415111024E+02  0.82447421802E+01  0.24866687678E+03  0.24926507338E+03  0.46999998093E+01 0.  1.
        5    1    3    3  502    0  0.41936013052E+02  0.15786964601E+02  0.90347100075E+03  0.90459371910E+03  0.46999998093E+01 0.  1.
       -5    1    3    3    0  502  0.57338065144E+02 -0.79475549891E+02  0.51613388321E+03  0.52537633383E+03  0.46999998093E+01 0.  1.
</event>
<event>
10   0  0.1583500E-03  0.1800956E+03  0.7818609E-02  0.1179894E+00
       21   -1    0    0  501  503  0.00000000000E+00  0.00000000000E+00  0.65363383764E+02  0.65363383764E+02  0.00000000000E+00 0. -1.
        2   -1    0    0  503    0  0.00000000000E+00  0.00000000000E+00 -0.67157586427E+03  0.67157586428E+03  0.25500000920E-02 0. -1.
       25    2    1    2    0    0 -0.45473792430E+02 -0.30847386820E+02 -0.51933290985E+03  0.53698300282E+03  0.12499858799E+03 0.  0.
        6    2    1    2  501    0  0.45473792430E+02  0.30847386820E+02 -0.86879570662E+02  0.19995624522E+03  0.17150805559E+03 0.  0.
       24    2    4    4    0    0  0.37333096448E+02  0.32794822944E+02 -0.12751651082E+03  0.15820083428E+03  0.79358571885E+02 0.  0.
      -13    1    5    5    0    0  0.33835687522E+02  0.58410557366E+02 -0.86599332391E+02  0.10980028459E+03  0.10565999895E+00 0.  1.
       14    1    5    5    0    0  0.34974089263E+01 -0.25615734422E+02 -0.40917178434E+02  0.48400549688E+02  0.00000000000E+00 0. -1.
        5    1    4    4  501    0  0.81406959813E+01 -0.19474361239E+01  0.40636940163E+02  0.41755410937E+02  0.46999998093E+01 0. -1.
        5    1    3    3  502    0 -0.71394289942E+02  0.10620691037E+02 -0.17804323027E+03  0.19217550717E+03  0.46999998093E+01 0. -1.
       -5    1    3    3    0  502  0.25920497512E+02 -0.41468077857E+02 -0.34128967958E+03  0.34480749565E+03  0.46999998093E+01 0. -1.
</event>
<event>
10   0  0.1583500E-03  0.2639226E+03  0.7818609E-02  0.1109051E+00
        2   -1    0    0  503    0  0.00000000000E+00  0.00000000000E+00  0.24460666683E+03  0.24460666685E+03  0.00000000000E+00 0.  1.
       21   -1    0    0  501  503  0.00000000000E+00  0.00000000000E+00 -0.34742228816E+03  0.34742228816E+03  0.25500000920E-02 0. -1.
       25    2    1    2    0    0 -0.19922788618E+03 -0.27069654251E+02  0.10217017101E+03  0.25785188037E+03  0.12499732618E+03 0.  0.
        6    2    1    2  501    0  0.19922788618E+03  0.27069654251E+02 -0.20498579233E+03  0.33417707464E+03  0.17096966205E+03 0.  0.
       24    2    4    4    0    0  0.10816781914E+03  0.12726377713E+02 -0.20026827314E+03  0.24175407763E+03  0.80469963568E+02 0.  0.
      -13    1    5    5    0    0 -0.98040479600E+01 -0.10508126653E+02 -0.14103017527E+02  0.20135698388E+02  0.10565999895E+00 0.  1.
       14    1    5    5    0    0  0.11797186710E+03  0.23234504366E+02 -0.18616525561E+03  0.22161837924E+03  0.00000000000E+00 0. -1.
        5    1    4    4  501    0  0.91060067038E+02  0.14343276538E+02 -0.47175191958E+01  0.92422997011E+02  0.46999998093E+01 0. -1.
        5    1    3    3  502    0 -0.10512294366E+03  0.80904109586E+01 -0.11401846653E+02  0.10615262662E+03  0.46999998093E+01 0. -1.
       -5    1    3    3    0  502 -0.94104942516E+02 -0.35160065210E+02  0.11357201766E+03  0.15169925374E+03  0.46999998093E+01 0. -1.
</event>
<event>
10   0  0.1583500E-03  0.2087233E+03  0.7818609E-02  0.1150950E+00
       21   -1    0    0  501  503  0.00000000000E+00  0.00000000000E+00  0.60823014775E+03  0.60823014775E+03  0.00000000000E+00 0. -1.
        2   -1    0    0  503    0  0.00000000000E+00  0.00000000000E+00 -0.56264522226E+03  0.56264522226E+03  0.25500000920E-02 0. -1.
       25    2    1    2    0    0  0.63693730699E+01  0.11645163152E+03 -0.53090729013E+03  0.55776145651E+03  0.12503495618E+03 0.  0.
        6    2    1    2  501    0 -0.63693730699E+01 -0.11645163152E+03  0.57649221562E+03  0.61311391350E+03  0.17310067840E+03 0.  0.
       24    2    4    4    0    0  0.53353737203E+00 -0.15220553254E+03  0.45760192073E+03  0.48868327487E+03  0.79025416738E+02 0.  0.
      -13    1    5    5    0    0  0.13222993129E+02 -0.22653002627E+02  0.22604139229E+02  0.34626064599E+02  0.10565999895E+00 0.  1.
       14    1    5    5    0    0 -0.12689455757E+02 -0.12955252992E+03  0.43499778150E+03  0.45405721028E+03  0.00000000000E+00 0. -1.
        5    1    4    4  501    0 -0.69029104420E+01  0.35753901026E+02  0.11889029489E+03  0.12443063862E+03  0.46999998093E+01 0. -1.
        5    1    3    3  502    0 -0.28193291489E+02  0.11175897307E+01 -0.25930635809E+02  0.38608270662E+02  0.46999998093E+01 0.  1.
       -5    1    3    3    0  502  0.34562664559E+02  0.11533404179E+03 -0.50497665432E+03  0.51915318585E+03  0.46999998093E+01 0.  1.
</event>
<event>
10   0  0.1583500E-03  0.2214321E+03  0.7818609E-02  0.1139317E+00
        2   -1    0    0  503    0  0.00000000000E+00  0.00000000000E+00  0.27835344620E+04  0.27835344620E+04  0.00000000000E+00 0.  1.
       21   -1    0    0  501  503  0.00000000000E+00  0.00000000000E+00 -0.23440771577E+02  0.23440771577E+02  0.25500000920E-02 0.  1.
       25    2    1    2    0    0  0.87139489714E+02 -0.11198835155E+03  0.21435240540E+04  0.21518490716E+04  0.12499750225E+03 0.  0.
        6    2    1    2  501    0 -0.87139489714E+02  0.11198835155E+03  0.61656963650E+03  0.65512616200E+03  0.16999261728E+03 0.  0.
       24    2    4    4    0    0 -0.19411841538E+02  0.11916060695E+03  0.48472827809E+03  0.50665828884E+03  0.84646607900E+02 0.  0.
      -15    1    5    5    0    0 -0.44803036969E+01  0.34348795587E+02  0.36968985055E+02  0.50692962670E+02  0.17769999504E+01 0.  1.
       16    1    5    5    0    0 -0.14931537842E+02  0.84811811359E+02  0.44775929303E+03  0.45596532617E+03  0.00000000000E+00 0. -1.
        5    1    4    4  501    0 -0.67727648176E+02 -0.71722553993E+01  0.13184135841E+03  0.14846787316E+03  0.46999998093E+01 0. -1.
        5    1    3    3  502    0  0.96817591806E+02 -0.81197599272E+02  0.20242606457E+04  0.20282060911E+04  0.46999998093E+01 0.  1.
       -5    1    3    3    0  502 -0.96781020918E+01 -0.30790752275E+02  0.11926340827E+03  0.12364298054E+03  0.46999998093E+01 0.  1.
</event>
<event>
10   0  0.1583500E-03  0.2184198E+03  0.7818609E-02  0.1142035E+00
       21   -1    0    0  501  503  0.00000000000E+00  0.00000000000E+00  0.62863018851E+02  0.62863018851E+02  0.00000000000E+00 0.  1.
        2   -1    0    0  503    0  0.00000000000E+00  0.00000000000E+00 -0.27422319084E+04  0.27422319084E+04  0.25500000920E-02 0.  1.
       25    2    1    2    0    0 -0.78134258097E+02  0.11104889894E+03 -0.25384766712E+04  0.25451760668E+04  0.12498232074E+03 0.  0.
        6    2    1    2  501    0  0.78134258097E+02 -0.11104889894E+03 -0.14089221836E+03  0.25991886047E+03  0.17108587490E+03 0.  0.
       24    2    4    4    0    0  0.92723490651E+01 -0.88748287599E+02 -0.23031808122E+02  0.12152649767E+03  0.79221148958E+02 0.  0.
      -11    1    5    5    0    0  0.20815647074E+02 -0.87415619457E+02  0.61963928576E+01  0.90073175657E+02  0.51099999109E-03 0.  1.
       12    1    5    5    0    0 -0.11543298009E+02 -0.13326681419E+01 -0.29228200980E+02  0.31453322016E+02  0.00000000000E+00 0. -1.
        5    1    4    4  501    0  0.68861909032E+02 -0.22300611339E+02 -0.11786041024E+03  0.13839236280E+03  0.46999998093E+01 0. -1.
        5    1    3    3  502    0 -0.93996337236E+02  0.41396934841E+02 -0.18822414928E+04  0.18850475180E+04  0.46999998093E+01 0. -1.
       -5    1    3    3    0  502  0.15862079139E+02  0.69651964098E+02 -0.65623517833E+03  0.66012854880E+03  0.46999998093E+01 0. -1.
</event>
<event>
10   0  0.1583500E-03  0.2132043E+03  0.7818609E-02  0.1146658E+00
        2   -1    0    0  503    0  0.00000000000E+00  0.00000000000E+00  0.13411089479E+04  0.13411089479E+04  0.00000000000E+00 0.  1.
       21   -1    0    0  501  503  0.00000000000E+00  0.00000000000E+00 -0.44905696761E+02  0.44905696761E+02  0.25500000920E-02 0. -1.
       25    2    1    2    0    0  0.58088981781E+02 -0.11205762572E+03  0.10287807026E+04  0.10440045743E+04  0.12499830385E+03 0.  0.
        6    2    1    2  501    0 -0.58088981781E+02  0.11205762572E+03  0.26742254860E+03  0.34201007036E+03  0.17182790065E+03 0.  0.
       24    2    4    4    0    0 -0.29856202536E+02  0.14531192613E+03  0.22512611533E+03  0.28106733835E+03  0.79436340411E+02 0.  0.
      -13    1    5    5    0    0  0.14584492412E+02  0.31625763642E+02  0.10161202655E+03  0.10741467055E+03  0.10565999895E+00 0.  1.
       14    1    5    5    0    0 -0.44440694947E+02  0.11368616248E+03  0.12351408878E+03  0.17365266780E+03  0.00000000000E+00 0. -1.
        5    1    4    4  501    0 -0.28232779246E+02 -0.33254300405E+02  0.42296433264E+02  0.60942732006E+02  0.46999998093E+01 0. -1.
        5    1    3    3  502    0  0.41774725225E+01  0.26615998776E+02  0.11711692514E+03  0.12026772975E+03  0.46999998093E+01 0. -1.
       -5    1    3    3    0  502  0.53911509259E+02 -0.13867362450E+03  0.91166377743E+03  0.92373684458E+03  0.46999998093E+01 0. -1.
</event>
<event>
10   0  0.1583500E-03  0.1810625E+03  0.7818609E-02  0.1179587E+00
       21   -1    0    0  501  503  0.00000000000E+00  0.00000000000E+00  0.68261019696E+02  0.68261019696E+02  0.00000000000E+00 0. -1.
        2   -1    0    0  503    0  0.00000000000E+00  0.00000000000E+00 -0.35028319277E+04  0.35028319277E+04  0.25500000920E-02 0. -1.
       25    2    1    2    0    0 -0.51162781707E+02 -0.79189801389E+01 -0.33789814139E+04  0.33816891264E+04  0.12500244806E+03 0.  0.
        6    2    1    2  501    0  0.51162781707E+02  0.79189801389E+01 -0.55589494134E+02  0.18940382097E+03  0.17350295405E+03 0.  0.
       24    2    4    4    0    0  0.93864812322E+02 -0.24357698258E+02 -0.47669301363E+02  0.13508930322E+03  0.81073158908E+02 0.  0.
      -11    1    5    5    0    0  0.71964630282E+02  0.86157385010E+01 -0.59502629061E+02  0.93774739813E+02  0.51099999109E-03 0.  1.
       12    1    5    5    0    0  0.21900182039E+02 -0.32973436759E+02  0.11833327698E+02  0.41314563406E+02  0.00000000000E+00 0. -1.
        5    1    4    4  501    0 -0.42702030615E+02  0.32276678397E+02 -0.79201927710E+01  0.54314517753E+02  0.46999998093E+01 0. -1.
        5    1    3    3  502    0 -0.91898201276E+02 -0.22938022626E+01 -0.20540600594E+04  0.20561214358E+04  0.46999998093E+01 0. -1.
       -5    1    3    3    0  502  0.40735419569E+02 -0.56251778763E+01 -0.13249213544E+04  0.13255676906E+04  0.46999998093E+01 0. -1.
</event>
<event>
10   0  0.1583500E-03  0.1810831E+03  0.7818609E-02  0.1179099E+00
        2   -1    0    0  503    0  0.00000000000E+00  0.00000000000E+00  0.98926254858E+03  0.98926254859E+03  0.00000000000E+00 0.  1.
       21   -1    0    0  501  503  0.00000000000E+00  0.00000000000E+00 -0.25548815013E+02  0.25548815013E+02  0.25500000920E-02 0.  1.
       25    2    1    2    0    0  0.27227840628E+02 -0.48322573786E+02  0.40025867789E+03  0.42297295178E+03  0.12499072872E+03 0.  0.
        6    2    1    2  501    0 -0.27227840628E+02  0.48322573786E+02  0.56345505568E+03  0.59183841182E+03  0.17237946366E+03 0.  0.
       24    2    4    4    0    0 -0.49454535609E+02  0.69752505991E+02  0.24466418666E+03  0.27152141862E+03  0.80945372638E+02 0.  0.
      -15    1    5    5    0    0  0.15761291031E+02  0.65726626590E+01  0.99221520526E+01  0.19829902158E+02  0.17769999504E+01 0.  1.
       16    1    5    5    0    0 -0.65215826640E+02  0.63179843332E+02  0.23474203461E+03  0.25169151646E+03  0.00000000000E+00 0. -1.
        5    1    4    4  501    0  0.22226694981E+02 -0.21429932205E+02  0.31879086902E+03  0.32031699320E+03  0.46999998093E+01 0. -1.
        5    1    3    3  502    0  0.25892876604E+02  0.17192138088E+02  0.30862666926E+03  0.31022334156E+03  0.46999998093E+01 0. -1.
       -5    1    3    3    0  502  0.13349640238E+01 -0.65514711874E+02  0.91632008629E+02  0.11274961022E+03  0.46999998093E+01 0. -1.
</event>
<event>
10   0  0.1583500E-03  0.2592461E+03  0.7818609E-02  0.1112201E+00
       21   -1    0    0  501  503  0.00000000000E+00  0.00000000000E+00  0.20861591489E+03  0.20861591489E+03  0.00000000000E+00 0. -1.
       -4   -1    0    0    0  501  0.00000000000E+00  0.00000000000E+00 -0.38299088795E+03  0.38299299361E+03  0.12699999809E+01 0. -1.
       25    2    1    2    0    0  0.11724233495E+03  0.15422042306E+03 -0.23087398264E+03  0.32627765371E+03  0.12499842982E+03 0.  0.
       -6    2    1    2    0  503 -0.11724233495E+03 -0.15422042306E+03  0.56499009572E+02  0.26533125479E+03  0.17227545586E+03 0.  0.
      -24    2    4    4    0    0 -0.94057048447E+02 -0.12130067256E+03  0.10449762926E+03  0.20250431015E+03  0.80793932830E+02 0.  0.
       13    1    5    5    0    0 -0.25006197413E+02 -0.79506583399E+02  0.85872540661E+02  0.11966917363E+03  0.10565999895E+00 0. -1.
      -14    1    5    5    0    0 -0.69050851034E+02 -0.41794089159E+02  0.18625088595E+02  0.82835136520E+02  0.00000000000E+00 0.  1.
       -5    1    4    4    0  503 -0.23185286502E+02 -0.32919750501E+02 -0.47998619684E+02  0.62826944642E+02  0.46999998093E+01 0.  1.
        5    1    3    3  502    0 -0.34883787336E+01 -0.77041883316E+01 -0.62604191047E+02  0.63347439087E+02  0.46999998093E+01 0. -1.
       -5    1    3    3    0  502  0.12073071368E+03  0.16192461139E+03 -0.16826979159E+03  0.26293021462E+03  0.46999998093E+01 0. -1.
</event>
<event>
10   0  0.1583500E-03  0.1857348E+03  0.7818609E-02  0.1174146E+00
        2   -1    0    0  503    0  0.00000000000E+00  0.00000000000E+00  0.30899849196E+03  0.30899849197E+03  0.00000000000E+00 0. -1.
       21   -1    0    0  501  503  0.00000000000E+00  0.00000000000E+00 -0.95048996426E+02  0.95048996426E+02  0.25500000920E-02 0. -1.
       25    2    1    2    0    0 -0.19748572126E+02 -0.63849954022E+02  0.15300014452E+03  0.20856796634E+03  0.12499891851E+03 0.  0.
        6    2    1    2  501    0  0.19748572126E+02  0.63849954022E+02  0.60949351010E+02  0.19547952206E+03  0.17329338541E+03 0.  0.
       24    2    4    4    0    0 -0.28814209379E+02 -0.18412819518E+02  0.15833875038E+02  0.89729799464E+02  0.81433621609E+02 0.  0.
      -15    1    5    5    0    0 -0.52735901071E+02  0.66681260495E+01  0.14118771693E+02  0.55027598619E+02  0.17769999504E+01 0.  1.
       16    1    5    5    0    0  0.23921691693E+02 -0.25080945568E+02  0.17151033450E+01  0.34702200845E+02  0.00000000000E+00 0. -1.
        5    1    4    4  501    0  0.48562781504E+02  0.82262773540E+02  0.45115475972E+02  0.10574972259E+03  0.46999998093E+01 0. -1.
        5    1    3    3  502    0  0.50866393087E+02 -0.21245769358E+02  0.38593379481E+02  0.67455997504E+02  0.46999998093E+01 0. -1.
       -5    1    3    3    0  502 -0.70614965213E+02 -0.42604184664E+02  0.11440676504E+03  0.14111196883E+03  0.46999998093E+01 0. -1.
</event>
<event>
10   0  0.1583500E-03  0.1991032E+03  0.7818609E-02  0.1158791E+00
        2   -1    0    0  503    0  0.00000000000E+00  0.00000000000E+00  0.15387739718E+04  0.15387739718E+04  0.00000000000E+00 0.  1.
       21   -1    0    0  501  503  0.00000000000E+00  0.00000000000E+00 -0.35490926340E+02  0.35490926340E+02  0.25500000920E-02 0.  1.
       25    2    1    2    0    0  0.76174748236E+01  0.10565137085E+03  0.12021327563E+04  0.12132474644E+04  0.12500403201E+03 0.  0.
        6    2    1    2  501    0 -0.76174748236E+01 -0.10565137085E+03  0.30115028912E+03  0.36101743370E+03  0.16858781900E+03 0.  0.
       24    2    4    4    0    0 -0.49975890224E+02 -0.69536086113E+02  0.10566648262E+03  0.15770841336E+03  0.79835338177E+02 0.  0.
      -15    1    5    5    0    0 -0.22864243497E+02 -0.21699549325E+01 -0.66367812250E+01  0.23972628745E+02  0.17769999504E+01 0.  1.
       16    1    5    5    0    0 -0.27111646728E+02 -0.67366131181E+02  0.11230326384E+03  0.13373578462E+03  0.00000000000E+00 0. -1.
        5    1    4    4  501    0  0.42358415401E+02 -0.36115284740E+02  0.19548380650E+03  0.20330902034E+03  0.46999998093E+01 0. -1.
        5    1    3    3  502    0 -0.48416300795E+02  0.85886734940E+02  0.58777204170E+03  0.59600229230E+03  0.46999998093E+01 0. -1.
       -5    1    3    3    0  502  0.56033775618E+02  0.19764635913E+02  0.61436071459E+03  0.61724517210E+03  0.46999998093E+01 0. -1.
</event>
<event>
10   0  0.1583500E-03  0.1948489E+03  0.7818609E-02  0.1163905E+00
        2   -1    0    0  503    0  0.00000000000E+00  0.00000000000E+00  0.14110666896E+04  0.14110666896E+04  0.00000000000E+00 0. -1.
       21   -1    0    0  501  503  0.00000000000E+00  0.00000000000E+00 -0.22844181078E+02  0.22844181078E+02  0.25500000920E-02 0.  1.
       25    2    1    2    0    0 -0.46533025350E+02 -0.79427898400E+02  0.77793120640E+03  0.79326935491E+03  0.12500077624E+03 0.  0.
        6    2    1    2  501    0  0.46533025350E+02  0.79427898400E+02  0.61029130216E+03  0.64064151580E+03  0.17173224738E+03 0.  0.
       24    2    4    4    0    0 -0.14163249128E+02 -0.13833563321E+02  0.29784586640E+03  0.30893987532E+03  0.79622367015E+02 0.  0.
      -11    1    5    5    0    0 -0.15870937418E+01 -0.28486525177E+02  0.33984200379E+02  0.44372591302E+02  0.51099999109E-03 0.  1.
       12    1    5    5    0    0 -0.12576155386E+02  0.14652961856E+02  0.26386166602E+03  0.26456728402E+03  0.00000000000E+00 0. -1.
        5    1    4    4  501    0  0.60696274478E+02  0.93261461721E+02  0.31244543575E+03  0.33170164048E+03  0.46999998093E+01 0. -1.
        5    1    3    3  502    0 -0.76955375519E+02 -0.12901841175E+02  0.48765566782E+03  0.49388128906E+03  0.46999998093E+01 0. -1.
       -5    1    3    3    0  502  0.30422350169E+02 -0.66526057225E+02  0.29027553857E+03  0.29938806585E+03  0.46999998093E+01 0. -1.
</event>
<event>
10   0  0.1583500E-03  0.1890897E+03  0.7818609E-02  0.1169462E+00
        2   -1    0    0  503    0  0.00000000000E+00  0.00000000000E+00  0.67996790428E+03  0.67996790428E+03  0.00000000000E+00 0.  1.
       21   -1    0    0  501  503  0.00000000000E+00  0.00000000000E+00 -0.16129973028E+03  0.16129973028E+03  0.25500000920E-02 0.  1.
       25    2    1    2    0    0 -0.31894460620E+02  0.75512703347E+02  0.61228907643E+03  0.63027054294E+03  0.12499447665E+03 0.  0.
        6    2    1    2  501    0  0.31894460620E+02 -0.75512703347E+02 -0.93620902435E+02  0.21099709162E+03  0.17039798800E+03 0.  0.
       24    2    4    4    0    0 -0.20230254323E+02  0.13493499850E+02 -0.25662817685E+02  0.87386892219E+02  0.79915899494E+02 0.  0.
      -11    1    5    5    0    0  0.25439671188E+02 -0.14681501205E+02 -0.13689702023E+02  0.32405729270E+02  0.51099999109E-03 0.  1.
       12    1    5    5    0    0 -0.45669925510E+02  0.28175001055E+02 -0.11973115661E+02  0.54981162949E+02  0.00000000000E+00 0. -1.
        5    1    4    4  501    0  0.52124714942E+02 -0.89006203196E+02 -0.67958084751E+02  0.12361019940E+03  0.46999998093E+01 0. -1.
        5    1    3    3  502    0  0.38388497090E+02  0.68241068800E+02  0.33892381842E+03  0.34788211346E+03  0.46999998093E+01 0.  1.
       -5    1    3    3    0  502 -0.70282957709E+02  0.72716345469E+01  0.27336525801E+03  0.28238842947E+03  0.46999998093E+01 0.  1.
</event>
<event>
10   0  0.1583500E-03  0.2084564E+03  0.7818609E-02  0.1150970E+00
       -2   -1    0    0    0  501  0.00000000000E+00  0.00000000000E+00  0.48335291268E+03  0.48335291269E+03  0.00000000000E+00 0. -1.
       21   -1    0    0  501  503  0.00000000000E+00  0.00000000000E+00 -0.78992167461E+02  0.78992167461E+02  0.25500000920E-02 0. -1.
       25    2    1    2    0    0 -0.93789739534E+02 -0.70812913975E+02  0.24892310507E+03  0.30231638344E+03  0.12498599692E+03 0.  0.
       -6    2    1    2    0  503  0.93789739534E+02  0.70812913975E+02  0.15543764015E+03  0.26002869671E+03  0.17217165595E+03 0.  0.
      -24    2    4    4    0    0  0.93947358331E+02  0.94587469867E+02  0.17082654262E+03  0.23132046324E+03  0.80960196731E+02 0.  0.
       13    1    5    5    0    0  0.74775097993E+02  0.10278208245E+03  0.11381014956E+03  0.17061135091E+03  0.10565999895E+00 0. -1.
      -14    1    5    5    0    0  0.19172260338E+02 -0.81946125807E+01  0.57016393062E+02  0.60709112328E+02  0.00000000000E+00 0.  1.
       -5    1    4    4    0  503 -0.15761879748E+00 -0.23774555892E+02 -0.15388902479E+02  0.28708233475E+02  0.46999998093E+01 0.  1.
        5    1    3    3  502    0 -0.69553104489E+02 -0.10602858892E+03  0.16643900798E+03  0.20929340503E+03  0.46999998093E+01 0. -1.
       -5    1    3    3    0  502 -0.24236635045E+02  0.35215674945E+02  0.82484097097E+02  0.93022978410E+02  0.46999998093E+01 0. -1.
</event>
<event>
10   0  0.1583500E-03  0.2122029E+03  0.7818609E-02  0.1148802E+00
       21   -1    0    0  501  503  0.00000000000E+00  0.00000000000E+00  0.60478414048E+03  0.60478414048E+03  0.00000000000E+00 0.  1.
       -2   -1    0    0    0  501  0.00000000000E+00  0.00000000000E+00 -0.92964390122E+02  0.92964390156E+02  0.25500000920E-02 0.  1.
       25    2    1    2    0    0 -0.73978131013E+02 -0.90623979619E+02  0.33475556735E+02  0.17444819140E+03  0.12500435606E+03 0.  0.
       -6    2    1    2    0  503  0.73978131013E+02  0.90623979619E+02  0.47834419362E+03  0.52330033923E+03  0.17704408468E+03 0.  0.
      -24    2    4    4    0    0  0.40933929266E+02 -0.21845764540E+02  0.22920834036E+03  0.24792400402E+03  0.82322685100E+02 0.  0.
       15    1    5    5    0    0 -0.14286110086E+02 -0.26144162766E+02  0.13820358350E+03  0.14138952723E+03  0.17769999504E+01 0. -1.
      -16    1    5    5    0    0  0.55220039351E+02  0.42983982257E+01  0.91004756862E+02  0.10653447679E+03  0.00000000000E+00 0.  1.
       -5    1    4    4    0  503  0.33044201748E+02  0.11246974416E+03  0.24913585326E+03  0.27537633522E+03  0.46999998093E+01 0.  1.
        5    1    3    3  502    0 -0.18742504152E+02 -0.19910978866E+02  0.71641295902E+02  0.76826387511E+02  0.46999998093E+01 0. -1.
       -5    1    3    3    0  502 -0.55235626861E+02 -0.70713000753E+02 -0.38165739167E+02  0.97621803890E+02  0.46999998093E+01 0. -1.
</event>
<event>
10   0  0.1583500E-03  0.2122192E+03  0.7818609E-02  0.1147530E+00
        2   -1    0    0  503    0  0.00000000000E+00  0.00000000000E+00  0.17209159214E+03  0.17209159216E+03  0.00000000000E+00 0. -1.
       21   -1    0    0  501  503  0.00000000000E+00  0.00000000000E+00 -0.26820474711E+03  0.26820474711E+03  0.25500000920E-02 0.  1.
       25    2    1    2    0    0 -0.11975137114E+03 -0.34067038355E+02  0.49126282389E+02  0.18313595132E+03  0.12499772418E+03 0.  0.
        6    2    1    2  501    0  0.11975137114E+03  0.34067038355E+02 -0.14523943736E+03  0.25716038795E+03  0.17186045785E+03 0.  0.
       24    2    4    4    0    0  0.67891318963E+02 -0.25422752371E+02 -0.14194110141E+03  0.17803094191E+03  0.79323341313E+02 0.  0.
      -15    1    5    5    0    0  0.53548460595E+02  0.23164362058E+01 -0.29235819740E+02  0.61079410553E+02  0.17769999504E+01 0.  1.
       16    1    5    5    0    0  0.14342858368E+02 -0.27739188577E+02 -0.11270528167E+03  0.11695153135E+03  0.00000000000E+00 0. -1.
        5    1    4    4  501    0  0.51860052181E+02  0.59489790726E+02 -0.32983359501E+01  0.79129446043E+02  0.46999998093E+01 0. -1.
        5    1    3    3  502    0 -0.27645881480E+02  0.22680945156E+02  0.64366814687E+02  0.73782768091E+02  0.46999998093E+01 0. -1.
       -5    1    3    3    0  502 -0.92105489664E+02 -0.56747983511E+02 -0.15240532298E+02  0.10935318323E+03  0.46999998093E+01 0. -1.
</event>
<event>
10   0  0.1583500E-03  0.1868017E+03  0.7818609E-02  0.1172581E+00
       21   -1    0    0  501  503  0.00000000000E+00  0.00000000000E+00  0.14703282711E+02  0.14703282711E+02  0.00000000000E+00 0.  1.
        2   -1    0    0  503    0  0.00000000000E+00  0.00000000000E+00 -0.19460993106E+04  0.19460993106E+04  0.25500000920E-02 0. -1.
       25    2    1    2    0    0 -0.72247887600E+02 -0.11845955204E+00 -0.10458428706E+04  0.10557615576E+04  0.12500154083E+03 0.  0.
        6    2    1    2  501    0  0.72247887600E+02  0.11845955204E+00 -0.88555315735E+03  0.90504103578E+03  0.17226465295E+03 0.  0.
       24    2    4    4    0    0  0.11618650974E+03  0.76733117486E+01 -0.68623391238E+03  0.70074240700E+03  0.81023167735E+02 0.  0.
      -15    1    5    5    0    0  0.32625761865E+02 -0.25785162514E+02 -0.11175137018E+03  0.11925116942E+03  0.17769999504E+01 0.  1.
       16    1    5    5    0    0  0.83560747876E+02  0.33458474262E+02 -0.57448254220E+03  0.58149123757E+03  0.00000000000E+00 0. -1.
        5    1    4    4  501    0 -0.43938622141E+02 -0.75548521965E+01 -0.19931924497E+03  0.20429862878E+03  0.46999998093E+01 0. -1.
        5    1    3    3  502    0 -0.49568762292E+02  0.33407519665E+02 -0.94634953917E+03  0.94824715388E+03  0.46999998093E+01 0.  1.
       -5    1    3    3    0  502 -0.22679125307E+02 -0.33525979217E+02 -0.99493331410E+02  0.10751440369E+03  0.46999998093E+01 0.  1.
</event>
<event>
10   0  0.1583500E-03  0.2106853E+03  0.7818609E-02  0.1148912E+00
        2   -1    0    0  503    0  0.00000000000E+00  0.00000000000E+00  0.33425824386E+04  0.33425824386E+04  0.00000000000E+00 0. -1.
       21   -1    0    0  501  503  0.00000000000E+00  0.00000000000E+00 -0.18871088246E+02  0.18871088246E+02  0.25500000920E-02 0.  1.
       25    2    1    2    0    0 -0.12022080750E+03 -0.19108638598E+02  0.26460539688E+04  0.26518002230E+04  0.12499853673E+03 0.  0.
        6    2    1    2  501    0  0.12022080750E+03  0.19108638598E+02  0.67765738152E+03  0.70965330383E+03  0.17195959491E+03 0.  0.
       24    2    4    4    0    0  0.13469275701E+02 -0.19495405231E+02  0.41950838996E+03  0.42760870881E+03  0.79375225257E+02 0.  0.
      -13    1    5    5    0    0  0.28507501465E+02  0.13768287256E+02  0.78372455526E+02  0.84525122437E+02  0.10565999895E+00 0.  1.
       14    1    5    5    0    0 -0.15038225764E+02 -0.33263692487E+02  0.34113593444E+03  0.34308358637E+03  0.00000000000E+00 0. -1.
        5    1    4    4  501    0  0.10675153180E+03  0.38604043829E+02  0.25814899156E+03  0.28204459502E+03  0.46999998093E+01 0. -1.
        5    1    3    3  502    0 -0.39676330824E+02  0.48178726507E+02  0.65728430513E+03  0.66025763812E+03  0.46999998093E+01 0.  1.
       -5    1    3    3    0  502 -0.80544476679E+02 -0.67287365105E+02  0.19887696637E+04  0.19915425849E+04  0.46999998093E+01 0.  1.
</event>
<event>
10   0  0.1583500E-03  0.2095161E+03  0.7818609E-02  0.1149997E+00
       21   -1    0    0  501  503  0.00000000000E+00  0.00000000000E+00  0.32009727568E+03  0.32009727568E+03  0.00000000000E+00 0.  1.
        4   -1    0    0  503    0  0.00000000000E+00  0.00000000000E+00 -0.19164437884E+03  0.19164858685E+03  0.12699999809E+01 0.  1.
       25    2    1    2    0    0  0.80275785865E+02 -0.88477795010E+02 -0.10162885272E+03  0.20056323374E+03  0.12499866007E+03 0.  0.
        6    2    1    2  501    0 -0.80275785865E+02  0.88477795010E+02  0.23008174955E+03  0.31118262878E+03  0.17211767769E+03 0.  0.
       24    2    4    4    0    0 -0.95435959770E+02  0.67554999969E+01  0.11873530210E+03  0.17215570429E+03  0.79911547085E+02 0.  0.
      -15    1    5    5    0    0 -0.50250541155E+02  0.28966898965E+02  0.20097601024E+02  0.61410662086E+02  0.17769999504E+01 0.  1.
       16    1    5    5    0    0 -0.45185418615E+02 -0.22211398968E+02  0.98637701073E+02  0.11074504220E+03  0.00000000000E+00 0. -1.
        5    1    4    4  501    0  0.15160173905E+02  0.81722295013E+02  0.11134644745E+03  0.13902692449E+03  0.46999998093E+01 0. -1.
        5    1    3    3  502    0 -0.21038014532E+02  0.15913945463E+02 -0.10138282207E+02  0.28648324209E+02  0.46999998093E+01 0. -1.
       -5    1    3    3    0  502  0.10131380040E+03 -0.10439174047E+03 -0.91490570508E+02  0.17191490953E+03  0.46999998093E+01 0. -1.
</event>
<event>
10   0  0.1583500E-03  0.2118074E+03  0.7818609E-02  0.1147858E+00
       -2   -1    0    0    0  501  0.00000000000E+00  0.00000000000E+00  0.77192942953E+03  0.77192942953E+03  0.00000000000E+00 0. -1.
       21   -1    0    0  501  503  0.00000000000E+00  0.00000000000E+00 -0.84864866653E+02  0.84864866653E+02  0.25500000920E-02 0. -1.
       25    2    1    2    0    0 -0.63030561162E+01  0.12383722541E+03  0.60423754337E+03  0.62936807604E+03  0.12500311756E+03 0.  0.
       -6    2    1    2    0  503  0.63030561162E+01 -0.12383722541E+03  0.82827019502E+02  0.22742622015E+03  0.17171774381E+03 0.  0.
      -24    2    4    4    0    0  0.59355571915E+02 -0.30768494968E+02  0.37374985668E+02  0.11096019336E+03  0.80283813787E+02 0.  0.
       15    1    5    5    0    0  0.66615930392E+02 -0.38188996365E+02  0.50086302816E+01  0.76969641622E+02  0.17769999504E+01 0. -1.
      -16    1    5    5    0    0 -0.72603584767E+01  0.74205013979E+01  0.32366355387E+02  0.33990551735E+02  0.00000000000E+00 0.  1.
       -5    1    4    4    0  503 -0.53052515799E+02 -0.93068730443E+02  0.45452033833E+02  0.11646602679E+03  0.46999998093E+01 0.  1.
        5    1    3    3  502    0  0.39312888590E+02  0.12299705067E+03  0.41491569476E+03  0.43456978892E+03  0.46999998093E+01 0. -1.
       -5    1    3    3    0  502 -0.45615944706E+02  0.84017474557E+00  0.18932184861E+03  0.19479828712E+03  0.46999998093E+01 0. -1.
</event>
<event>
10   0  0.1583500E-03  0.2709784E+03  0.7818609E-02  0.1104828E+00
        2   -1    0    0  503    0  0.00000000000E+00  0.00000000000E+00  0.10059347903E+04  0.10059347903E+04  0.00000000000E+00 0. -1.
       21   -1    0    0  501  503  0.00000000000E+00  0.00000000000E+00 -0.65844624432E+02  0.65844624432E+02  0.25500000920E-02 0. -1.
       25    2    1    2    0    0 -0.11249524374E+03 -0.17640734377E+03  0.44001478395E+03  0.50300471098E+03  0.12500399343E+03 0.  0.
        6    2    1    2  501    0  0.11249524374E+03  0.17640734377E+03  0.50007538196E+03  0.56877470380E+03  0.17220495125E+03 0.  0.
       24    2    4    4    0    0  0.14559617973E+03  0.16395816020E+03  0.45414965526E+03  0.51062045626E+03  0.80005094447E+02 0.  0.
      -13    1    5    5    0    0  0.98789433210E+02  0.10599531739E+03  0.37452563642E+03  0.40157667129E+03  0.10565999895E+00 0.  1.
       14    1    5    5    0    0  0.46806746519E+02  0.57962842809E+02  0.79624018836E+02  0.10904378498E+03  0.00000000000E+00 0. -1.
        5    1    4    4  501    0 -0.33100935985E+02  0.12449183567E+02  0.45925726709E+02  0.58154247536E+02  0.46999998093E+01 0. -1.
        5    1    3    3  502    0  0.13914310271E+02 -0.13343297461E+02  0.12395154129E+03  0.12552978214E+03  0.46999998093E+01 0.  1.
       -5    1    3    3    0  502 -0.12640955401E+03 -0.16306404631E+03  0.31606324266E+03  0.37747492884E+03  0.46999998093E+01 0.  1.
</event>
<event>
10   0  0.1583500E-03  0.2568525E+03  0.7818609E-02  0.1113697E+00
        2   -1    0    0  503    0  0.00000000000E+00  0.00000000000E+00  0.46481445866E+03  0.46481445866E+03  0.00000000000E+00 0. -1.
       21   -1    0    0  501  503  0.00000000000E+00  0.00000000000E+00 -0.13275690502E+03  0.13275690502E+03  0.25500000920E-02 0.  1.
       25    2    1    2    0    0 -0.90609245712E+02  0.16810714032E+03  0.22111010394E+03  0.31778122905E+03  0.12500074174E+03 0.  0.
        6    2    1    2  501    0  0.90609245712E+02 -0.16810714032E+03  0.11094744969E+03  0.27979013464E+03  0.17176477175E+03 0.  0.
       24    2    4    4    0    0  0.73353484010E+02 -0.94749763408E+02 -0.24589958645E+01  0.14354705059E+03  0.79002897360E+02 0.  0.
      -11    1    5    5    0    0  0.67159164481E+02 -0.71578051912E+02  0.30502698606E+02  0.10278222372E+03  0.51099999109E-03 0.  1.
       12    1    5    5    0    0  0.61943195296E+01 -0.23171711496E+02 -0.32961694471E+02  0.40764826879E+02  0.00000000000E+00 0. -1.
        5    1    4    4  501    0  0.17255761701E+02 -0.73357376908E+02  0.11340644556E+03  0.13624308405E+03  0.46999998093E+01 0. -1.
        5    1    3    3  502    0 -0.49105327463E+02  0.80589319764E+02  0.19603339231E+03  0.21761698588E+03  0.46999998093E+01 0.  1.
       -5    1    3    3    0  502 -0.41503918249E+02  0.87517820552E+02  0.25076711627E+02  0.10016424316E+03  0.46999998093E+01 0.  1.
</event>
<event>
10   0  0.1583500E-03  0.1798084E+03  0.7818609E-02  0.1180235E+00
       -2   -1    0    0    0  501  0.00000000000E+00  0.00000000000E+00  0.68949291626E+02  0.68949291673E+02  0.00000000000E+00 0.  1.
       21   -1    0    0  501  503  0.00000000000E+00  0.00000000000E+00 -0.36306280458E+03  0.36306280458E+03  0.25500000920E-02 0.  1.
       25    2    1    2    0    0  0.38388530332E+01 -0.53791618315E+02 -0.13852185232E+03  0.19423108752E+03  0.12501654609E+03 0.  0.
       -6    2    1    2    0  503 -0.38388530332E+01  0.53791618315E+02 -0.15559166063E+03  0.23778100873E+03  0.17153066274E+03 0.  0.
      -24    2    4    4    0    0 -0.54741166131E+02  0.68101749674E+02 -0.71173758960E+02  0.13805991036E+03  0.79752061458E+02 0.  0.
       11    1    5    5    0    0  0.15986279240E+02  0.33956831955E+02 -0.35996503097E+02  0.52003613296E+02  0.51099999109E-03 0. -1.
      -12    1    5    5    0    0 -0.70727445371E+02  0.34144917719E+02 -0.35177255863E+02  0.86056297066E+02  0.00000000000E+00 0.  1.
       -5    1    4    4    0  503  0.50902313098E+02 -0.14310131359E+02 -0.84417901674E+02  0.99721098367E+02  0.46999998093E+01 0.  1.
        5    1    3    3  502    0 -0.22731581823E+01 -0.42263027182E+02 -0.16170380793E+03  0.16721705120E+03  0.46999998093E+01 0.  1.
       -5    1    3    3    0  502  0.61120112155E+01 -0.11528591133E+02  0.23181955607E+02  0.27014036326E+02  0.46999998093E+01 0.  1.
</event>
<event>
10   0  0.1583500E-03  0.1806226E+03  0.7818609E-02  0.1179851E+00
        2   -1    0    0  503    0  0.00000000000E+00  0.00000000000E+00  0.11923427833E+04  0.11923427833E+04  0.00000000000E+00 0.  1.
       21   -1    0    0  501  503  0.00000000000E+00  0.00000000000E+00 -0.25548027229E+02  0.25548027229E+02  0.25500000920E-02 0.  1.
       25    2    1    2    0    0  0.40984433936E+02  0.32412312385E+02  0.77122037191E+03  0.78303034002E+03  0.12500147809E+03 0.  0.
        6    2    1    2  501    0 -0.40984433936E+02 -0.32412312385E+02  0.39557438420E+03  0.43486047055E+03  0.17289954769E+03 0.  0.
       24    2    4    4    0    0 -0.38652565360E+02  0.15791043406E+02  0.10062686179E+03  0.13595390974E+03  0.81328484551E+02 0.  0.
      -13    1    5    5    0    0 -0.10744884555E+02 -0.23933098856E+02  0.23494982110E+01  0.26339648267E+02  0.10565999895E+00 0.  1.
       14    1    5    5    0    0 -0.27907680805E+02  0.39724142262E+02  0.98277363579E+02  0.10961426147E+03  0.00000000000E+00 0. -1.
        5    1    4    4  501    0 -0.23318685759E+01 -0.48203355792E+02  0.29494752241E+03  0.29890656081E+03  0.46999998093E+01 0. -1.
        5    1    3    3  502    0  0.35505050777E+02 -0.45121891506E+02  0.33142118386E+03  0.33639067292E+03  0.46999998093E+01 0. -1.
       -5    1    3    3    0  502  0.54793831591E+01  0.77534203891E+02  0.43979918805E+03  0.44663966709E+03  0.46999998093E+01 0. -1.
</event>
<event>
10   0  0.1583500E-03  0.2288034E+03  0.7818609E-02  0.1133677E+00
        2   -1    0    0  503    0  0.00000000000E+00  0.00000000000E+00  0.79616336083E+02  0.79616336124E+02  0.00000000000E+00 0. -1.
       21   -1    0    0  501  503  0.00000000000E+00  0.00000000000E+00 -0.78432458894E+03  0.78432458894E+03  0.25500000920E-02 0. -1.
       25    2    1    2    0    0 -0.28139099490E+02  0.14905343324E+03 -0.10668453544E+03  0.22364149499E+03  0.12500077319E+03 0.  0.
        6    2    1    2  501    0  0.28139099490E+02 -0.14905343324E+03 -0.59802371742E+03  0.64029943007E+03  0.17129582212E+03 0.  0.
       24    2    4    4    0    0 -0.33163345257E+02 -0.50107809309E+02 -0.38386665385E+03  0.39650943007E+03  0.79091846434E+02 0.  0.
      -11    1    5    5    0    0 -0.19552161034E+01 -0.11755583156E+02 -0.27912461486E+01  0.12239593975E+02  0.51099999109E-03 0.  1.
       12    1    5    5    0    0 -0.31208129153E+02 -0.38352226153E+02 -0.38107540771E+03  0.38426983610E+03  0.00000000000E+00 0. -1.
        5    1    4    4  501    0  0.61302444746E+02 -0.98945623935E+02 -0.21415706356E+03  0.24379000000E+03  0.46999998093E+01 0. -1.
        5    1    3    3  502    0  0.31895962288E+02 -0.14547085653E+01 -0.30948460502E+02  0.44714268337E+02  0.46999998093E+01 0.  1.
       -5    1    3    3    0  502 -0.60035061778E+02  0.15050814181E+03 -0.75736074939E+02  0.17892722666E+03  0.46999998093E+01 0.  1.
</event>
<event>
10   0  0.1583500E-03  0.1788605E+03  0.7818609E-02  0.1181666E+00
       21   -1    0    0  501  503  0.00000000000E+00  0.00000000000E+00  0.68827124866E+03  0.68827124866E+03  0.00000000000E+00 0. -1.
        4   -1    0    0  503    0  0.00000000000E+00  0.00000000000E+00 -0.76448034586E+02  0.76458582854E+02  0.12699999809E+01 0. -1.
       25    2    1    2    0    0  0.45370009128E+02 -0.16176523495E+02  0.71373650578E+01  0.13414592320E+03  0.12499627630E+03 0.  0.
        6    2    1    2  501    0 -0.45370009128E+02  0.16176523495E+02  0.60468584901E+03  0.63058390831E+03  0.17225263942E+03 0.  0.
       24    2    4    4    0    0  0.11021964769E+02 -0.15833855321E+01  0.16582197055E+03  0.18773058846E+03  0.87303247985E+02 0.  0.
      -11    1    5    5    0    0 -0.28725291552E+01 -0.42877652733E+02  0.65289885755E+02  0.78163378316E+02  0.51099999109E-03 0.  1.
       12    1    5    5    0    0  0.13894493925E+02  0.41294267201E+02  0.10053208480E+03  0.10956721014E+03  0.00000000000E+00 0. -1.
        5    1    4    4  501    0 -0.56391973897E+02  0.17759909027E+02  0.43886387846E+03  0.44285331985E+03  0.46999998093E+01 0. -1.
        5    1    3    3  502    0  0.38939730604E+02  0.52084000093E+02  0.20197590412E+01  0.65232009857E+02  0.46999998093E+01 0. -1.
       -5    1    3    3    0  502  0.64302785241E+01 -0.68260523588E+02  0.51176060165E+01  0.68913913341E+02  0.46999998093E+01 0. -1.
</event>
<event>
10   0  0.1583500E-03  0.2410818E+03  0.7818609E-02  0.1124635E+00
        2   -1    0    0  503    0  0.00000000000E+00  0.00000000000E+00  0.40701017848E+03  0.40701017849E+03  0.00000000000E+00 0.  1.
       21   -1    0    0  501  503  0.00000000000E+00  0.00000000000E+00 -0.18468046686E+03  0.18468046686E+03  0.25500000920E-02 0. -1.
       25    2    1    2    0    0  0.16757691415E+03  0.18391347398E+02  0.27398787734E+03  0.34513637225E+03  0.12501797753E+03 0.  0.
        6    2    1    2  501    0 -0.16757691415E+03 -0.18391347398E+02 -0.51658165723E+02  0.24655427310E+03  0.17233740070E+03 0.  0.
       24    2    4    4    0    0 -0.99563798706E+02  0.46130042019E+02 -0.54373727346E+02  0.15264869372E+03  0.91127332228E+02 0.  0.
      -15    1    5    5    0    0  0.64788034675E+01  0.31659731609E+02  0.51559273271E+00  0.32368766807E+02  0.17769999504E+01 0.  1.
       16    1    5    5    0    0 -0.10604260217E+03  0.14470310410E+02 -0.54889320078E+02  0.12027992691E+03  0.00000000000E+00 0. -1.
        5    1    4    4  501    0 -0.68013115448E+02 -0.64521389418E+02  0.27155616220E+01  0.93905579379E+02  0.46999998093E+01 0. -1.
        5    1    3    3  502    0  0.91983391586E+02 -0.52337341219E+02  0.14796334721E+03  0.18197632738E+03  0.46999998093E+01 0.  1.
       -5    1    3    3    0  502  0.75593522569E+02  0.70728688617E+02  0.12602453014E+03  0.16316004487E+03  0.46999998093E+01 0.  1.
</event>
<event>
10   0  0.1583500E-03  0.1771677E+03  0.7818609E-02  0.1183760E+00
        2   -1    0    0  503    0  0.00000000000E+00  0.00000000000E+00  0.59213321726E+03  0.59213321726E+03  0.00000000000E+00 0. -1.
       21   -1    0    0  501  503  0.00000000000E+00  0.00000000000E+00 -0.73290613608E+02  0.73290613608E+02  0.25500000920E-02 0. -1.
       25    2    1    2    0    0  0.22345640850E+02  0.34266247504E+02  0.46047350635E+03  0.47888869739E+03  0.12500012424E+03 0.  0.
        6    2    1    2  501    0 -0.22345640850E+02 -0.34266247504E+02  0.58369097297E+02  0.18653513348E+03  0.17238010650E+03 0.  0.
       24    2    4    4    0    0 -0.18395968911E+02  0.23782568669E+02  0.86365721790E+02  0.12179591855E+03  0.80443679870E+02 0.  0.
      -11    1    5    5    0    0  0.24512344989E+02  0.24114658592E+02  0.65732877899E+02  0.74183441906E+02  0.51099999109E-03 0.  1.
       12    1    5    5    0    0 -0.42908313900E+02 -0.33208992246E+00  0.20632843891E+02  0.47612476647E+02  0.00000000000E+00 0. -1.
        5    1    4    4  501    0 -0.39496719388E+01 -0.58048816174E+02 -0.27996624493E+02  0.64739214922E+02  0.46999998093E+01 0. -1.
        5    1    3    3  502    0  0.68753057025E+02 -0.63705959226E+01  0.26287433447E+03  0.27183188383E+03  0.46999998093E+01 0. -1.
       -5    1    3    3    0  502 -0.46407416175E+02  0.40636843427E+02  0.19759917188E+03  0.20705681357E+03  0.46999998093E+01 0. -1.
</event>
<event>
10   0  0.1583500E-03  0.3518877E+03  0.7818609E-02  0.1064131E+00
        2   -1    0    0  503    0  0.00000000000E+00  0.00000000000E+00  0.23788278370E+04  0.23788278370E+04  0.00000000000E+00 0.  1.
       21   -1    0    0  501  503  0.00000000000E+00  0.00000000000E+00 -0.49076786417E+02  0.49076786417E+02  0.25500000920E-02 0.  1.
       25    2    1    2    0    0  0.14428912371E+03  0.26940120618E+03  0.12024522891E+04  0.12469611754E+04  0.12499721693E+03 0.  0.
        6    2    1    2  501    0 -0.14428912371E+03 -0.26940120618E+03  0.11272987614E+04  0.11809434479E+04  0.17443786485E+03 0.  0.
       24    2    4    4    0    0 -0.12047290706E+03 -0.10502065307E+03  0.70030895933E+03  0.72276165054E+03  0.80054394347E+02 0.  0.
      -13    1    5    5    0    0 -0.10732953464E+03 -0.85774574423E+02  0.67290187951E+03  0.68678516091E+03  0.10565999895E+00 0.  1.
       14    1    5    5    0    0 -0.13143372423E+02 -0.19246078643E+02  0.27407079821E+02  0.35976489630E+02  0.00000000000E+00 0. -1.
        5    1    4    4  501    0 -0.23816216647E+02 -0.16438055311E+03  0.42698980206E+03  0.45818179741E+03  0.46999998093E+01 0. -1.
        5    1    3    3  502    0  0.16501324341E+03  0.24670604444E+03  0.11249508637E+04  0.11634559633E+04  0.46999998093E+01 0.  1.
       -5    1    3    3    0  502 -0.20724119702E+02  0.22695161743E+02  0.77501425472E+02  0.83505212127E+02  0.46999998093E+01 0.  1.
</event>
<event>
10   0  0.1583500E-03  0.1928913E+03  0.7818609E-02  0.1164474E+00
       21   -1    0    0  501  503  0.00000000000E+00  0.00000000000E+00  0.21997941892E+03  0.21997941892E+03  0.00000000000E+00 0.  1.
        2   -1    0    0  503    0  0.00000000000E+00  0.00000000000E+00 -0.15330938397E+03  0.15330938399E+03  0.25500000920E-02 0. -1.
       25    2    1    2    0    0  0.23744270624E+02  0.93544231288E+02 -0.24712631827E+02  0.15984600186E+03  0.12500286614E+03 0.  0.
        6    2    1    2  501    0 -0.23744270624E+02 -0.93544231288E+02  0.91382666772E+02  0.21344280105E+03  0.16701114915E+03 0.  0.
       24    2    4    4    0    0  0.40081716404E+02 -0.32561771104E+02  0.15749153970E+02  0.97102200542E+02  0.80709284299E+02 0.  0.
      -13    1    5    5    0    0 -0.15533277205E+02  0.26690481952E+01  0.26069078100E+02  0.30463330679E+02  0.10565999895E+00 0.  1.
       14    1    5    5    0    0  0.55614993610E+02 -0.35230819299E+02 -0.10319924130E+02  0.66638869864E+02  0.00000000000E+00 0. -1.
        5    1    4    4  501    0 -0.63825987028E+02 -0.60982460184E+02  0.75633512801E+02  0.11634060051E+03  0.46999998093E+01 0. -1.
        5    1    3    3  502    0  0.55099062331E+02  0.10050928127E+03  0.63819838799E+01  0.11489491724E+03  0.46999998093E+01 0.  1.
       -5    1    3    3    0  502 -0.31354791707E+02 -0.69650499824E+01 -0.31094615707E+02  0.44951084619E+02  0.46999998093E+01 0.  1.
</event>
<event>
10   0  0.1583500E-03  0.2028891E+03  0.7818609E-02  0.1155905E+00
        2   -1    0    0  503    0  0.00000000000E+00  0.00000000000E+00  0.31029993162E+04  0.31029993162E+04  0.00000000000E+00 0. -1.
       21   -1    0    0  501  503  0.00000000000E+00  0.00000000000E+00 -0.28812140633E+02  0.28812140633E+02  0.25500000920E-02 0. -1.
       25    2    1    2    0    0  0.25120463689E+02 -0.10576574400E+03  0.27089061396E+04  0.27139667446E+04  0.12500235025E+03 0.  0.
        6    2    1    2  501    0 -0.25120463689E+02  0.10576574400E+03  0.36528103603E+03  0.41784471225E+03  0.17130831263E+03 0.  0.
       24    2    4    4    0    0  0.25534106860E+02  0.36638318474E+02  0.28612522862E+03  0.30108762115E+03  0.82412087492E+02 0.  0.
      -13    1    5    5    0    0 -0.10200334413E+02 -0.20809428689E+02  0.11000813526E+03  0.11242277408E+03  0.10565999895E+00 0.  1.
       14    1    5    5    0    0  0.35734441273E+02  0.57447747163E+02  0.17611709336E+03  0.18866484707E+03  0.00000000000E+00 0. -1.
        5    1    4    4  501    0 -0.50654570549E+02  0.69127425524E+02  0.79155807406E+02  0.11675709110E+03  0.46999998093E+01 0. -1.
        5    1    3    3  502    0 -0.28592541144E+02 -0.86002886847E+01  0.17253582701E+03  0.17516335226E+03  0.46999998093E+01 0.  1.
       -5    1    3    3    0  502  0.53713004833E+02 -0.97165455313E+02  0.25363703126E+04  0.25388033924E+04  0.46999998093E+01 0.  1.
</event>
<event>
10   0  0.1583500E-03  0.1732666E+03  0.7818609E-02  0.1188655E+00
        4   -1    0    0  503    0  0.00000000000E+00  0.00000000000E+00  0.45705003826E+02  0.45722645097E+02  0.00000000000E+00 0.  1.
       21   -1    0    0  501  503  0.00000000000E+00  0.00000000000E+00 -0.53852539957E+03  0.53852539957E+03  0.12699999809E+01 0.  1.
       25    2    1    2    0    0 -0.16645573442E+02  0.81493063866E+00 -0.12449960240E+03  0.17720809318E+03  0.12499927226E+03 0.  0.
        6    2    1    2  501    0  0.16645573442E+02 -0.81493063866E+00 -0.36832079335E+03  0.40703995149E+03  0.17246326005E+03 0.  0.
       24    2    4    4    0    0  0.36074004469E+02  0.58865473623E+02 -0.20027960341E+03  0.22759874636E+03  0.83203317348E+02 0.  0.
      -13    1    5    5    0    0  0.19014589732E+02  0.49866737869E+02 -0.20132933112E+03  0.20828287712E+03  0.10565999895E+00 0.  1.
       14    1    5    5    0    0  0.17059414737E+02  0.89987357536E+01  0.10497277032E+01  0.19315869242E+02  0.00000000000E+00 0. -1.
        5    1    4    4  501    0 -0.19428431026E+02 -0.59680404262E+02 -0.16804118994E+03  0.17944120513E+03  0.46999998093E+01 0. -1.
        5    1    3    3  502    0 -0.14600556840E+02  0.21557936266E+02  0.18715382194E+02  0.32407968233E+02  0.46999998093E+01 0. -1.
       -5    1    3    3    0  502 -0.20450166024E+01 -0.20743005627E+02 -0.14321498459E+03  0.14480012495E+03  0.46999998093E+01 0. -1.
</event>
<event>
10   0  0.1583500E-03  0.2910736E+03  0.7818609E-02  0.1093139E+00
        2   -1    0    0  503    0  0.00000000000E+00  0.00000000000E+00  0.40565957200E+03  0.40565957201E+03  0.00000000000E+00 0. -1.
       21   -1    0    0  501  503  0.00000000000E+00  0.00000000000E+00 -0.20288776257E+03  0.20288776257E+03  0.25500000920E-02 0.  1.
       25    2    1    2    0    0 -0.23357512859E+03 -0.28760998417E+02  0.25388790836E+02  0.26768287158E+03  0.12499997324E+03 0.  0.
        6    2    1    2  501    0  0.23357512859E+03  0.28760998417E+02  0.17738301860E+03  0.34086446300E+03  0.17128721821E+03 0.  0.
       24    2    4    4    0    0  0.11101854330E+03  0.61459005339E+02  0.42825971327E+02  0.15588617989E+03  0.79775378194E+02 0.  0.
      -11    1    5    5    0    0  0.11286079406E+03  0.71992637444E+02  0.50119526578E+02  0.14294217582E+03  0.51099999109E-03 0.  1.
       12    1    5    5    0    0 -0.18422507604E+01 -0.10533632106E+02 -0.72935552511E+01  0.12944004071E+02  0.00000000000E+00 0. -1.
        5    1    4    4  501    0  0.12255658529E+03 -0.32698006921E+02  0.13455704727E+03  0.18497828311E+03  0.46999998093E+01 0. -1.
        5    1    3    3  502    0 -0.48818723467E+02 -0.37906132999E+02  0.51780614372E+02  0.80767968297E+02  0.46999998093E+01 0.  1.
       -5    1    3    3    0  502 -0.18475640512E+03  0.91451345817E+01 -0.26391823537E+02  0.18691490328E+03  0.46999998093E+01 0.  1.
</event>
<event>
10   0  0.1583500E-03  0.2943057E+03  0.7818609E-02  0.1091501E+00
       -4   -1    0    0    0  501  0.00000000000E+00  0.00000000000E+00  0.51855330497E+02  0.51870880086E+02  0.00000000000E+00 0.  1.
       21   -1    0    0  501  503  0.00000000000E+00  0.00000000000E+00 -0.19383095494E+04  0.19383095494E+04  0.12699999809E+01 0. -1.
       25    2    1    2    0    0 -0.87706566583E+02 -0.22163728013E+03 -0.45382436264E+03  0.52763329195E+03  0.12499925150E+03 0.  0.
       -6    2    1    2    0  503  0.87706566583E+02  0.22163728013E+03 -0.14326298563E+04  0.14625471375E+04  0.17262763022E+03 0.  0.
      -24    2    4    4    0    0  0.63096837530E+02  0.60019131731E+02 -0.79766516467E+03  0.80685794728E+03  0.84655331114E+02 0.  0.
       11    1    5    5    0    0  0.60441386369E+02  0.13040581520E+01 -0.32748830334E+03  0.33302169686E+03  0.51099999109E-03 0. -1.
      -12    1    5    5    0    0  0.26554511609E+01  0.58715073579E+02 -0.47017686133E+03  0.47383625043E+03  0.00000000000E+00 0.  1.
       -5    1    4    4    0  503  0.24609729053E+02  0.16161814840E+03 -0.63496469159E+03  0.65568919026E+03  0.46999998093E+01 0.  1.
        5    1    3    3  502    0 -0.26235897653E+02 -0.69097859328E+02 -0.44307483570E+02  0.86302257143E+02  0.46999998093E+01 0.  1.
       -5    1    3    3    0  502 -0.61470668931E+02 -0.15253942080E+03 -0.40951687907E+03  0.44133103480E+03  0.46999998093E+01 0.  1.
</event>
<event>
10   0  0.1583500E-03  0.1881228E+03  0.7818609E-02  0.1170997E+00
       21   -1    0    0  501  503  0.00000000000E+00  0.00000000000E+00  0.79872477671E+02  0.79872477671E+02  0.00000000000E+00 0. -1.
        2   -1    0    0  503    0  0.00000000000E+00  0.00000000000E+00 -0.68255138510E+03  0.68255138511E+03  0.25500000920E-02 0. -1.
       25    2    1    2    0    0 -0.76403494562E+02  0.42021740488E+01 -0.54691431633E+03  0.56621004429E+03  0.12499357021E+03 0.  0.
        6    2    1    2  501    0  0.76403494562E+02 -0.42021740488E+01 -0.55764591095E+02  0.19621381849E+03  0.17185755933E+03 0.  0.
       24    2    4    4    0    0  0.31014944249E+02  0.53952166563E+02 -0.66375453498E+02  0.12153632368E+03  0.80576759077E+02 0.  0.
      -13    1    5    5    0    0  0.29762431238E+02  0.48181370275E+02 -0.17687092693E+01  0.56660270484E+02  0.10565999895E+00 0.  1.
       14    1    5    5    0    0  0.12525130106E+01  0.57707962879E+01 -0.64606744229E+02  0.64876053198E+02  0.00000000000E+00 0. -1.
        5    1    4    4  501    0  0.45388550313E+02 -0.58154340611E+02  0.10610862403E+02  0.74677494807E+02  0.46999998093E+01 0. -1.
        5    1    3    3  502    0 -0.84151784029E+02 -0.45049206967E+02 -0.38775859716E+03  0.39936170757E+03  0.46999998093E+01 0. -1.
       -5    1    3    3    0  502  0.77482894671E+01  0.49251381016E+02 -0.15915571917E+03  0.16684833671E+03  0.46999998093E+01 0. -1.
</event>
<event>
10   0  0.1583500E-03  0.2030214E+03  0.7818609E-02  0.1155713E+00
       21   -1    0    0  501  503  0.00000000000E+00  0.00000000000E+00  0.46934631954E+02  0.46934631954E+02  0.00000000000E+00 0.  1.
        2   -1    0    0  503    0  0.00000000000E+00  0.00000000000E+00 -0.83411616247E+03  0.83411616248E+03  0.25500000920E-02 0. -1.
       25    2    1    2    0    0 -0.10918220035E+03 -0.60778050052E+01 -0.51747158005E+03  0.54346948348E+03  0.12499820290E+03 0.  0.
        6    2    1    2  501    0  0.10918220035E+03  0.60778050052E+01 -0.26970995047E+03  0.33758131095E+03  0.17105552178E+03 0.  0.
       24    2    4    4    0    0  0.11370564617E+03  0.50675566563E+02 -0.15371042591E+03  0.21313292167E+03  0.79383627088E+02 0.  0.
      -15    1    5    5    0    0  0.88851192588E+02  0.30346403649E+02 -0.53881905093E+02  0.10826752082E+03  0.17769999504E+01 0.  1.
       16    1    5    5    0    0  0.24854453579E+02  0.20329162915E+02 -0.99828520818E+02  0.10486540085E+03  0.00000000000E+00 0. -1.
        5    1    4    4  501    0 -0.45234458115E+01 -0.44597761558E+02 -0.11599952456E+03  0.12444838928E+03  0.46999998093E+01 0. -1.
        5    1    3    3  502    0 -0.54594918159E+02  0.56781926107E+02 -0.19427907402E+03  0.20969320642E+03  0.46999998093E+01 0. -1.
       -5    1    3    3    0  502 -0.54587282196E+02 -0.62859731112E+02 -0.32319250603E+03  0.33377627705E+03  0.46999998093E+01 0. -1.
</event>
<event>
10   0  0.1583500E-03  0.1735926E+03  0.7818609E-02  0.1188017E+00
        2   -1    0    0  503    0  0.00000000000E+00  0.00000000000E+00  0.90070706937E+03  0.90070706938E+03  0.00000000000E+00 0.  1.
       21   -1    0    0  501  503  0.00000000000E+00  0.00000000000E+00 -0.25521524644E+02  0.25521524644E+02  0.25500000920E-02 0.  1.
       25    2    1    2    0    0  0.19914510340E+02  0.12408711996E+02  0.31302844426E+03  0.33787921612E+03  0.12499997567E+03 0.  0.
        6    2    1    2  501    0 -0.19914510340E+02 -0.12408711996E+02  0.56215710047E+03  0.58834937790E+03  0.17199947967E+03 0.  0.
       24    2    4    4    0    0 -0.77330011178E+02  0.63208935698E+01  0.32343087175E+03  0.34205759943E+03  0.79849785259E+02 0.  0.
      -13    1    5    5    0    0 -0.29649030366E+02  0.22006930145E+01  0.22344585299E+02  0.37191392924E+02  0.10565999895E+00 0.  1.
       14    1    5    5    0    0 -0.47680980812E+02  0.41202005553E+01  0.30108628645E+03  0.30486620651E+03  0.00000000000E+00 0. -1.
        5    1    4    4  501    0  0.57415500838E+02 -0.18729605565E+02  0.23872622872E+03  0.24629177847E+03  0.46999998093E+01 0. -1.
        5    1    3    3  502    0 -0.40756917409E+02  0.34645273662E+02  0.20496160885E+03  0.21187914575E+03  0.46999998093E+01 0. -1.
       -5    1    3    3    0  502  0.60671427750E+02 -0.22236561667E+02  0.10806683540E+03  0.12600007037E+03  0.46999998093E+01 0. -1.
</event>
<event>
10   0  0.1583500E-03  0.1772336E+03  0.7818609E-02  0.1183651E+00
       21   -1    0    0  501  503  0.00000000000E+00  0.00000000000E+00  0.15253577826E+02  0.15253577826E+02  0.00000000000E+00 0.  1.
        2   -1    0    0  503    0  0.00000000000E+00  0.00000000000E+00 -0.15661269469E+04  0.15661269469E+04  0.25500000920E-02 0.  1.
       25    2    1    2    0    0 -0.12064180264E+02  0.39653048299E+02 -0.68869986188E+03  0.70117889038E+03  0.12500571134E+03 0.  0.
        6    2    1    2  501    0  0.12064180264E+02 -0.39653048299E+02 -0.86217350720E+03  0.88020163436E+03  0.17231904111E+03 0.  0.
       24    2    4    4    0    0  0.15850922749E+02  0.16053213676E+02 -0.22846103598E+03  0.24401682378E+03  0.82709176655E+02 0.  0.
      -15    1    5    5    0    0  0.88217162806E+00 -0.27151830255E+02 -0.30672138782E+02  0.41011436689E+02  0.17769999504E+01 0.  1.
       16    1    5    5    0    0  0.14968751120E+02  0.43205043931E+02 -0.19778889720E+03  0.20300538709E+03  0.00000000000E+00 0. -1.
        5    1    4    4  501    0 -0.37867424847E+01 -0.55706261975E+02 -0.63371247121E+03  0.63618481058E+03  0.46999998093E+01 0. -1.
        5    1    3    3  502    0 -0.52577582883E+01  0.24303665729E+01  0.32804933424E+01  0.81487630149E+01  0.46999998093E+01 0. -1.
       -5    1    3    3    0  502 -0.68064219755E+01  0.37222681726E+02 -0.69198035523E+03  0.69303012736E+03  0.46999998093E+01 0. -1.
</event>
<event>
10   0  0.1583500E-03  0.1855299E+03  0.7818609E-02  0.1174133E+00
       21   -1    0    0  501  503  0.00000000000E+00  0.00000000000E+00  0.72034230781E+02  0.72034230781E+02  0.00000000000E+00 0.  1.
        2   -1    0    0  503    0  0.00000000000E+00  0.00000000000E+00 -0.42733839136E+03  0.42733839137E+03  0.25500000920E-02 0.  1.
       25    2    1    2    0    0 -0.44260353560E+02  0.51491492390E+02 -0.24562788935E+03  0.28384949938E+03  0.12500850205E+03 0.  0.
        6    2    1    2  501    0  0.44260353560E+02 -0.51491492390E+02 -0.10967627123E+03  0.21552312277E+03  0.17265856275E+03 0.  0.
       24    2    4    4    0    0  0.45814668465E+02 -0.16925893805E+02  0.71808790939E+01  0.93560505220E+02  0.79476621624E+02 0.  0.
      -15    1    5    5    0    0 -0.77071776395E+01 -0.25388184173E+02  0.25020975832E+02  0.36512565552E+02  0.17769999504E+01 0.  1.
       16    1    5    5    0    0  0.53521846105E+02  0.84622903676E+01 -0.17840096738E+02  0.57047939668E+02  0.00000000000E+00 0. -1.
        5    1    4    4  501    0 -0.15543149048E+01 -0.34565598585E+02 -0.11685715032E+03  0.12196261755E+03  0.46999998093E+01 0. -1.
        5    1    3    3  502    0 -0.62895320275E+02  0.63480771486E+02 -0.91202806923E+02  0.12777195173E+03  0.46999998093E+01 0.  1.
       -5    1    3    3    0  502  0.18634966715E+02 -0.11989279096E+02 -0.15442508243E+03  0.15607754765E+03  0.46999998093E+01 0.  1.
</event>
<event>
10   0  0.1583500E-03  0.1931207E+03  0.7818609E-02  0.1166973E+00
       21   -1    0    0  501  503  0.00000000000E+00  0.00000000000E+00  0.82324170703E+01  0.82324170703E+01  0.00000000000E+00 0.  1.
        2   -1    0    0  503    0  0.00000000000E+00  0.00000000000E+00 -0.37452131278E+04  0.37452131278E+04  0.25500000920E-02 0.  1.
       25    2    1    2    0    0 -0.79765765625E+02  0.90046894764E+01 -0.12075794546E+04  0.12166825843E+04  0.12499884050E+03 0.  0.
        6    2    1    2  501    0  0.79765765625E+02 -0.90046894764E+01 -0.25294012562E+04  0.25367629605E+04  0.17564720746E+03 0.  0.
       24    2    4    4    0    0  0.55149823589E+02 -0.74901160296E+02 -0.15861462770E+04  0.15908769552E+04  0.79861051498E+02 0.  0.
      -13    1    5    5    0    0 -0.31427199103E+01 -0.34487616776E+02 -0.20453028281E+03  0.20744136557E+03  0.10565999895E+00 0.  1.
       14    1    5    5    0    0  0.58292543500E+02 -0.40413543521E+02 -0.13816159942E+04  0.13834355896E+04  0.00000000000E+00 0. -1.
        5    1    4    4  501    0  0.24615942035E+02  0.65896470820E+02 -0.94325497912E+03  0.94588600534E+03  0.46999998093E+01 0. -1.
        5    1    3    3  502    0  0.59183290228E+01 -0.11035249048E+02 -0.12336892776E+02  0.18195940799E+02  0.46999998093E+01 0. -1.
       -5    1    3    3    0  502 -0.85684094648E+02  0.20039938525E+02 -0.11952425618E+04  0.11984866435E+04  0.46999998093E+01 0. -1.
</event>
<event>
10   0  0.1583500E-03  0.1833239E+03  0.7818609E-02  0.1176402E+00
       21   -1    0    0  501  503  0.00000000000E+00  0.00000000000E+00  0.64753504671E+02  0.64753504671E+02  0.00000000000E+00 0.  1.
        2   -1    0    0  503    0  0.00000000000E+00  0.00000000000E+00 -0.46372350770E+03  0.46372350771E+03  0.25500000920E-02 0.  1.
       25    2    1    2    0    0 -0.30237870899E+02  0.55481812588E+02 -0.27052601906E+03  0.30463438888E+03  0.12500089414E+03 0.  0.
        6    2    1    2  501    0  0.30237870899E+02 -0.55481812588E+02 -0.12844398397E+03  0.22384262350E+03  0.17209039111E+03 0.  0.
       24    2    4    4    0    0  0.68173491768E+02 -0.50499039304E+02 -0.36332587818E+02  0.12399003886E+03  0.82799123470E+02 0.  0.
      -15    1    5    5    0    0  0.49838294382E+02  0.57959428372E+01  0.69033514662E+01  0.50678028085E+02  0.17769999504E+01 0.  1.
       16    1    5    5    0    0  0.18335197386E+02 -0.56294982141E+02 -0.43235939284E+02  0.73312010771E+02  0.00000000000E+00 0. -1.
        5    1    4    4  501    0 -0.37935620869E+02 -0.49827732844E+01 -0.92111396152E+02  0.99852584642E+02  0.46999998093E+01 0. -1.
        5    1    3    3  502    0  0.26063333570E+02  0.63554698837E+02 -0.79033653323E+02  0.10481844044E+03  0.46999998093E+01 0.  1.
       -5    1    3    3    0  502 -0.56301204469E+02 -0.80728862483E+01 -0.19149236574E+03  0.19981594844E+03  0.46999998093E+01 0.  1.
</event>
<event>
10   0  0.1583500E-03  0.1854589E+03  0.7818609E-02  0.1174056E+00
        2   -1    0    0  503    0  0.00000000000E+00  0.00000000000E+00  0.18663478933E+04  0.18663478933E+04  0.00000000000E+00 0.  1.
       21   -1    0    0  501  503  0.00000000000E+00  0.00000000000E+00 -0.46161198321E+02  0.46161198321E+02  0.25500000920E-02 0.  1.
       25    2    1    2    0    0  0.62287718825E+02 -0.29155410303E+02  0.16638268146E+04  0.16699325004E+04  0.12500035577E+03 0.  0.
        6    2    1    2  501    0 -0.62287718825E+02  0.29155410303E+02  0.15635988031E+03  0.24257659119E+03  0.17223586315E+03 0.  0.
       24    2    4    4    0    0  0.29278304658E+02  0.13297999544E+02  0.55247601102E+02  0.10516633998E+03  0.83508117696E+02 0.  0.
      -13    1    5    5    0    0 -0.43161167825E+01 -0.27192051673E+02 -0.17629785736E+01  0.27589052100E+02  0.10565999895E+00 0.  1.
       14    1    5    5    0    0  0.33594421440E+02  0.40490051217E+02  0.57010579676E+02  0.77577287877E+02  0.00000000000E+00 0. -1.
        5    1    4    4  501    0 -0.91566023483E+02  0.15857410759E+02  0.10111227921E+03  0.13741025121E+03  0.46999998093E+01 0. -1.
        5    1    3    3  502    0 -0.31641892859E+02 -0.25472508201E+02  0.78862230208E+03  0.78968176083E+03  0.46999998093E+01 0. -1.
       -5    1    3    3    0  502  0.93929611684E+02 -0.36829021017E+01  0.87520451256E+03  0.88025073957E+03  0.46999998093E+01 0. -1.
</event>
<event>
10   0  0.1583500E-03  0.1766381E+03  0.7818609E-02  0.1184414E+00
        2   -1    0    0  503    0  0.00000000000E+00  0.00000000000E+00  0.87625527813E+03  0.87625527814E+03  0.00000000000E+00 0. -1.
       21   -1    0    0  501  503  0.00000000000E+00  0.00000000000E+00 -0.30861701910E+02  0.30861701910E+02  0.25500000920E-02 0. -1.
       25    2    1    2    0    0 -0.73288257414E+01  0.37755920722E+02  0.52722377283E+03  0.54320349361E+03  0.12500363032E+03 0.  0.
        6    2    1    2  501    0  0.73288257414E+01 -0.37755920722E+02  0.31816980339E+03  0.36391348644E+03  0.17240005970E+03 0.  0.
       24    2    4    4    0    0  0.39012702479E+02 -0.57569839862E+02  0.10151663224E+03  0.14401090345E+03  0.74814679539E+02 0.  0.
      -13    1    5    5    0    0  0.48899296962E+02 -0.33060652442E+02  0.26928488675E+02  0.64879138786E+02  0.10565999895E+00 0.  1.
       14    1    5    5    0    0 -0.98865944829E+01 -0.24509187421E+02  0.74588143561E+02  0.79131764661E+02  0.00000000000E+00 0. -1.
        5    1    4    4  501    0 -0.31683876738E+02  0.19813919140E+02  0.21665317116E+03  0.21990258299E+03  0.46999998093E+01 0. -1.
        5    1    3    3  502    0  0.11598994358E+02  0.15569076062E+02  0.50702430040E+03  0.50741764257E+03  0.46999998093E+01 0.  1.
       -5    1    3    3    0  502 -0.18927820099E+02  0.22186844661E+02  0.20199472436E+02  0.35785851039E+02  0.46999998093E+01 0.  1.
</event>
<event>
10   0  0.1583500E-03  0.1802259E+03  0.7818609E-02  0.1180931E+00
       -2   -1    0    0    0  501  0.00000000000E+00  0.00000000000E+00  0.13205659264E+03  0.13205659267E+03  0.00000000000E+00 0. -1.
       21   -1    0    0  501  503  0.00000000000E+00  0.00000000000E+00 -0.22682231769E+03  0.22682231769E+03  0.25500000920E-02 0. -1.
       25    2    1    2    0    0  0.41992659956E+02 -0.18187324893E+02  0.33993543298E+02  0.13738325714E+03  0.12499774429E+03 0.  0.
       -6    2    1    2    0  503 -0.41992659956E+02  0.18187324893E+02 -0.12875926835E+03  0.22149565322E+03  0.17431928446E+03 0.  0.
      -24    2    4    4    0    0 -0.26031763001E+02  0.10279733163E+01 -0.15376074337E+03  0.18690725445E+03  0.10302061032E+03 0.  0.
       15    1    5    5    0    0  0.34703118493E+02 -0.21298057586E+02 -0.70825618184E+02  0.81714990118E+02  0.17769999504E+01 0. -1.
      -16    1    5    5    0    0 -0.60734881494E+02  0.22326030902E+02 -0.82935125184E+02  0.10519226433E+03  0.00000000000E+00 0.  1.
       -5    1    4    4    0  503 -0.15960896955E+02  0.17159351577E+02  0.25001475022E+02  0.34588398772E+02  0.46999998093E+01 0.  1.
        5    1    3    3  502    0  0.85645936401E+02 -0.22909758139E+02  0.25964842515E+02  0.92500521539E+02  0.46999998093E+01 0. -1.
       -5    1    3    3    0  502 -0.43653276445E+02  0.47224332464E+01  0.80287007833E+01  0.44882735596E+02  0.46999998093E+01 0. -1.
</event>
<event>
10   0  0.1583500E-03  0.2158639E+03  0.7818609E-02  0.1144197E+00
       21   -1    0    0  501  503  0.00000000000E+00  0.00000000000E+00  0.12234783105E+03  0.12234783105E+03  0.00000000000E+00 0. -1.
        2   -1    0    0  503    0  0.00000000000E+00  0.00000000000E+00 -0.32342313257E+03  0.32342313258E+03  0.25500000920E-02 0.  1.
       25    2    1    2    0    0 -0.84014001345E+02  0.10131307380E+03 -0.10259370724E+03  0.20850349405E+03  0.12500218767E+03 0.  0.
        6    2    1    2  501    0  0.84014001345E+02 -0.10131307380E+03 -0.98481594282E+02  0.23726746958E+03  0.17109803145E+03 0.  0.
       24    2    4    4    0    0 -0.15275773158E+02 -0.53156298524E+02 -0.79415273250E+02  0.12518201593E+03  0.79402834758E+02 0.  0.
      -11    1    5    5    0    0 -0.19076712626E+02  0.12691830411E+02 -0.13068741251E+01  0.22950194858E+02  0.51099999109E-03 0.  1.
       12    1    5    5    0    0  0.38009394681E+01 -0.65848128935E+02 -0.78108399125E+02  0.10223182107E+03  0.00000000000E+00 0. -1.
        5    1    4    4  501    0  0.99289774503E+02 -0.48156775273E+02 -0.19066321033E+02  0.11208545366E+03  0.46999998093E+01 0. -1.
        5    1    3    3  502    0 -0.30760743186E+02  0.95763683052E+02 -0.11549870642E+03  0.15322841608E+03  0.46999998093E+01 0. -1.
       -5    1    3    3    0  502 -0.53253258160E+02  0.55493907455E+01  0.12904999181E+02  0.55275077968E+02  0.46999998093E+01 0. -1.
</event>
<event>
10   0  0.1583500E-03  0.1806936E+03  0.7818609E-02  0.1179937E+00
        2   -1    0    0  503    0  0.00000000000E+00  0.00000000000E+00  0.36430896094E+02  0.36430896183E+02  0.00000000000E+00 0.  1.
       21   -1    0    0  501  503  0.00000000000E+00  0.00000000000E+00 -0.74502884787E+03  0.74502884787E+03  0.25500000920E-02 0.  1.
       25    2    1    2    0    0 -0.72703520387E+01  0.50633847219E+02 -0.19668627368E+03  0.23859351750E+03  0.12499892734E+03 0.  0.
        6    2    1    2  501    0  0.72703520387E+01 -0.50633847219E+02 -0.51191167810E+03  0.54286622655E+03  0.17330184436E+03 0.  0.
       24    2    4    4    0    0 -0.62005888504E+02 -0.31204387645E+02 -0.25446095238E+03  0.27550940960E+03  0.79602854679E+02 0.  0.
      -13    1    5    5    0    0 -0.50796668567E+02 -0.15331328497E+02 -0.25000435467E+03  0.25557296354E+03  0.10565999895E+00 0.  1.
       14    1    5    5    0    0 -0.11209219938E+02 -0.15873059148E+02 -0.44565977031E+01  0.19936446058E+02  0.00000000000E+00 0. -1.
        5    1    4    4  501    0  0.69276240543E+02 -0.19429459573E+02 -0.25745072572E+03  0.26735681696E+03  0.46999998093E+01 0. -1.
        5    1    3    3  502    0  0.80680122092E+01  0.39528028381E+02  0.32626533548E+00  0.40617167504E+02  0.46999998093E+01 0.  1.
       -5    1    3    3    0  502 -0.15338364248E+02  0.11105818837E+02 -0.19701253901E+03  0.19797634999E+03  0.46999998093E+01 0.  1.
</event>
<event>
10   0  0.1583500E-03  0.2133852E+03  0.7818609E-02  0.1146496E+00
       21   -1    0    0  501  503  0.00000000000E+00  0.00000000000E+00  0.61711913040E+03  0.61711913040E+03  0.00000000000E+00 0.  1.
       -2   -1    0    0    0  501  0.00000000000E+00  0.00000000000E+00 -0.82163055986E+02  0.82163056025E+02  0.25500000920E-02 0.  1.
       25    2    1    2    0    0  0.10504156527E+03 -0.70631741527E+02  0.76549123738E+02  0.19364378090E+03  0.12496228308E+03 0.  0.
       -6    2    1    2    0  503 -0.10504156527E+03  0.70631741527E+02  0.45840695068E+03  0.50563840552E+03  0.17178676131E+03 0.  0.
      -24    2    4    4    0    0  0.21686430992E+01  0.52092177815E+02  0.27666300099E+03  0.29376415638E+03  0.83884834481E+02 0.  0.
       15    1    5    5    0    0 -0.58516223566E+01  0.24322380983E+02  0.12495316398E+02  0.28019820870E+02  0.17769999504E+01 0. -1.
      -16    1    5    5    0    0  0.80202654558E+01  0.27769796832E+02  0.26416768459E+03  0.26574433551E+03  0.00000000000E+00 0.  1.
       -5    1    4    4    0  503 -0.10721020837E+03  0.18539563712E+02  0.18174394969E+03  0.21187424914E+03  0.46999998093E+01 0.  1.
        5    1    3    3  502    0  0.23718754420E+02 -0.78944873965E+02  0.75310877586E+02  0.11175281078E+03  0.46999998093E+01 0. -1.
       -5    1    3    3    0  502  0.81322810853E+02  0.83131324378E+01  0.12382461514E+01  0.81890970123E+02  0.46999998093E+01 0. -1.
</event>
<event>
10   0  0.1583500E-03  0.1879942E+03  0.7818609E-02  0.1171427E+00
       21   -1    0    0  501  503  0.00000000000E+00  0.00000000000E+00  0.13741820923E+03  0.13741820923E+03  0.00000000000E+00 0. -1.
        2   -1    0    0  503    0  0.00000000000E+00  0.00000000000E+00 -0.51608390914E+03  0.51608390915E+03  0.25500000920E-02 0. -1.
       25    2    1    2    0    0 -0.41845056778E+02  0.61411472864E+02 -0.43385178433E+03  0.45757532563E+03  0.12500172031E+03 0.  0.
        6    2    1    2  501    0  0.41845056778E+02 -0.61411472864E+02  0.55186084418E+02  0.19592679274E+03  0.17268302298E+03 0.  0.
       24    2    4    4    0    0  0.59474890452E+02  0.82195915751E+01 -0.81966006940E+01  0.10001667367E+03  0.79569632834E+02 0.  0.
      -13    1    5    5    0    0 -0.19719093828E+02 -0.15485761589E+01  0.20759436512E+00  0.19781178149E+02  0.10565999895E+00 0.  1.
       14    1    5    5    0    0  0.79193984280E+02  0.97681677340E+01 -0.84041950591E+01  0.80235495522E+02  0.00000000000E+00 0. -1.
        5    1    4    4  501    0 -0.17629833674E+02 -0.69631064440E+02  0.63382685112E+02  0.95910119073E+02  0.46999998093E+01 0. -1.
        5    1    3    3  502    0  0.29415761511E+02 -0.17399798592E+02 -0.16257573407E+03  0.16619566577E+03  0.46999998093E+01 0.  1.
       -5    1    3    3    0  502 -0.71260818289E+02  0.78811271456E+02 -0.27127605027E+03  0.29137965986E+03  0.46999998093E+01 0.  1.
</event>
<event>
10   0  0.1583500E-03  0.2550241E+03  0.7818609E-02  0.1115111E+00
       21   -1    0    0  501  503  0.00000000000E+00  0.00000000000E+00  0.26604206565E+02  0.26604206565E+02  0.00000000000E+00 0.  1.
        2   -1    0    0  503    0  0.00000000000E+00  0.00000000000E+00 -0.32054769476E+04  0.32054769476E+04  0.25500000920E-02 0. -1.
       25    2    1    2    0    0  0.18682052002E+03 -0.99676435496E+01 -0.24416429798E+04  0.24519881925E+04  0.12499757964E+03 0.  0.
        6    2    1    2  501    0 -0.18682052002E+03  0.99676435496E+01 -0.73722976125E+03  0.78009296165E+03  0.17330910915E+03 0.  0.
       24    2    4    4    0    0 -0.19412721426E+03  0.13545549029E+01 -0.73850952071E+03  0.76779252022E+03  0.80136332557E+02 0.  0.
      -15    1    5    5    0    0 -0.48098970213E+02  0.21566284221E+02 -0.10685134983E+03  0.11915949077E+03  0.17769999504E+01 0.  1.
       16    1    5    5    0    0 -0.14602824404E+03 -0.20211729318E+02 -0.63165817088E+03  0.64863302945E+03  0.00000000000E+00 0. -1.
        5    1    4    4  501    0  0.73066942394E+01  0.86130886467E+01  0.12797594577E+01  0.12300441424E+02  0.46999998093E+01 0. -1.
        5    1    3    3  502    0  0.16424197681E+03  0.24331257183E+02 -0.14497127576E+04  0.14591972474E+04  0.46999998093E+01 0.  1.
       -5    1    3    3    0  502  0.22578543207E+02 -0.34298900733E+02 -0.99193022216E+03  0.99279094518E+03  0.46999998093E+01 0.  1.
</event>
<event>
10   0  0.1583500E-03  0.2328369E+03  0.7818609E-02  0.1130764E+00
        2   -1    0    0  503    0  0.00000000000E+00  0.00000000000E+00  0.31880409654E+04  0.31880409654E+04  0.00000000000E+00 0.  1.
       21   -1    0    0  501  503  0.00000000000E+00  0.00000000000E+00 -0.65957828575E+02  0.65957828575E+02  0.25500000920E-02 0.  1.
       25    2    1    2    0    0 -0.17939681794E+00 -0.15650368062E+03  0.29680998361E+04  0.29748502857E+04  0.12499660275E+03 0.  0.
        6    2    1    2  501    0  0.17939681794E+00  0.15650368062E+03  0.15398330070E+03  0.27914850831E+03  0.17239373123E+03 0.  0.
       24    2    4    4    0    0 -0.22344217480E+01  0.50706625270E+01  0.39005204906E+02  0.88938524344E+02  0.79736759677E+02 0.  0.
      -13    1    5    5    0    0 -0.25963054579E+02  0.28350038859E+02  0.10112444276E+01  0.38455671698E+02  0.10565999895E+00 0.  1.
       14    1    5    5    0    0  0.23728632831E+02 -0.23279376332E+02  0.37993960478E+02  0.50482852646E+02  0.00000000000E+00 0. -1.
        5    1    4    4  501    0  0.24138185659E+01  0.15143301810E+03  0.11497809580E+03  0.19020998397E+03  0.46999998093E+01 0. -1.
        5    1    3    3  502    0  0.25262651747E+02 -0.12662553037E+03  0.27604721853E+04  0.27634943464E+04  0.46999998093E+01 0. -1.
       -5    1    3    3    0  502 -0.25442048565E+02 -0.29878150256E+02  0.20762765081E+03  0.21135593930E+03  0.46999998093E+01 0. -1.
</event>
<event>
10   0  0.1583500E-03  0.2090257E+03  0.7818609E-02  0.1150170E+00
       21   -1    0    0  501  503  0.00000000000E+00  0.00000000000E+00  0.49035331897E+03  0.49035331897E+03  0.00000000000E+00 0.  1.
        2   -1    0    0  503    0  0.00000000000E+00  0.00000000000E+00 -0.90141977697E+02  0.90141977733E+02  0.25500000920E-02 0. -1.
       25    2    1    2    0    0 -0.43835964385E+02  0.11191637636E+03  0.64483597450E+02  0.18501476378E+03  0.12500184560E+03 0.  0.
        6    2    1    2  501    0  0.43835964385E+02 -0.11191637636E+03  0.33572774383E+03  0.39548053293E+03  0.17101130629E+03 0.  0.
       24    2    4    4    0    0 -0.22894722470E+01 -0.11055653540E+03  0.31700096961E+03  0.34545866628E+03  0.81388489187E+02 0.  0.
      -15    1    5    5    0    0  0.14748470877E+02 -0.62495079544E+02  0.26482001826E+03  0.27249945351E+03  0.17769999504E+01 0.  1.
       16    1    5    5    0    0 -0.17037943124E+02 -0.48061455858E+02  0.52180951348E+02  0.72959212775E+02  0.00000000000E+00 0. -1.
        5    1    4    4  501    0  0.46125436632E+02 -0.13598409606E+01  0.18726774215E+02  0.50021866645E+02  0.46999998093E+01 0. -1.
        5    1    3    3  502    0 -0.51566325935E+02  0.10930415599E+03  0.11185213978E+01  0.12095381587E+03  0.46999998093E+01 0. -1.
       -5    1    3    3    0  502  0.77303615499E+01  0.26122203766E+01  0.63365076052E+02  0.64060947903E+02  0.46999998093E+01 0. -1.
</event>
<event>
10   0  0.1583500E-03  0.2422739E+03  0.7818609E-02  0.1124060E+00
       -2   -1    0    0    0  501  0.00000000000E+00  0.00000000000E+00  0.69115774715E+03  0.69115774716E+03  0.00000000000E+00 0. -1.
       21   -1    0    0  501  503  0.00000000000E+00  0.00000000000E+00 -0.75972807587E+02  0.75972807587E+02  0.25500000920E-02 0.  1.
       25    2    1    2    0    0 -0.57442158324E+02 -0.15835504852E+03  0.34908084882E+03  0.40725831148E+03  0.12500388119E+03 0.  0.
       -6    2    1    2    0  503  0.57442158324E+02  0.15835504852E+03  0.26610409074E+03  0.35987224326E+03  0.17412846239E+03 0.  0.
      -24    2    4    4    0    0  0.37257281777E+02  0.83604739500E+01  0.11612847304E+03  0.14675120360E+03  0.81191692546E+02 0.  0.
       13    1    5    5    0    0  0.15426032150E+02  0.32989493225E+02  0.13278020256E+02  0.38763205712E+02  0.10565999895E+00 0. -1.
      -14    1    5    5    0    0  0.21831249628E+02 -0.24629019275E+02  0.10285045278E+03  0.10798799789E+03  0.00000000000E+00 0.  1.
       -5    1    4    4    0  503  0.20184876546E+02  0.14999457457E+03  0.14997561770E+03  0.21312103966E+03  0.46999998093E+01 0.  1.
        5    1    3    3  502    0  0.31641195113E+02 -0.95267354836E+02  0.16930793007E+03  0.19688651378E+03  0.46999998093E+01 0.  1.
       -5    1    3    3    0  502 -0.89083353437E+02 -0.63087693683E+02  0.17977291875E+03  0.21037179770E+03  0.46999998093E+01 0.  1.
</event>
<event>
10   0  0.1583500E-03  0.1984998E+03  0.7818609E-02  0.1160206E+00
       21   -1    0    0  501  503  0.00000000000E+00  0.00000000000E+00  0.73040774982E+02  0.73040774982E+02  0.00000000000E+00 0. -1.
        2   -1    0    0  503    0  0.00000000000E+00  0.00000000000E+00 -0.74059669769E+03  0.74059669770E+03  0.25500000920E-02 0. -1.
       25    2    1    2    0    0 -0.48816386094E+02  0.87099663820E+02 -0.57082956274E+03  0.59282495968E+03  0.12500260847E+03 0.  0.
        6    2    1    2  501    0  0.48816386094E+02 -0.87099663820E+02 -0.96726359967E+02  0.22081251300E+03  0.17155986185E+03 0.  0.
       24    2    4    4    0    0  0.83275482989E+00  0.90064239887E+01 -0.83721340236E+01  0.81645820783E+02  0.80710211681E+02 0.  0.
      -15    1    5    5    0    0 -0.27700791000E+01 -0.26162380050E+02 -0.30204398150E+02  0.40094973058E+02  0.17769999504E+01 0.  1.
       16    1    5    5    0    0  0.36028339298E+01  0.35168804038E+02  0.21832264127E+02  0.41550847725E+02  0.00000000000E+00 0. -1.
        5    1    4    4  501    0  0.47983631265E+02 -0.96106087809E+02 -0.88354225943E+02  0.13916669222E+03  0.46999998093E+01 0. -1.
        5    1    3    3  502    0  0.82002558619E+01  0.12124841245E+01  0.28431246751E+01  0.99442279780E+01  0.46999998093E+01 0.  1.
       -5    1    3    3    0  502 -0.57016641956E+02  0.85887179696E+02 -0.57367268742E+03  0.58288073170E+03  0.46999998093E+01 0.  1.
</event>
<event>
10   0  0.1583500E-03  0.7949779E+03  0.7818609E-02  0.9570864E-01
        2   -1    0    0  503    0  0.00000000000E+00  0.00000000000E+00  0.22212783533E+04  0.22212783533E+04  0.00000000000E+00 0. -1.
       21   -1    0    0  501  503  0.00000000000E+00  0.00000000000E+00 -0.39574281063E+03  0.39574281063E+03  0.25500000920E-02 0.  1.
       25    2    1    2    0    0  0.23746041670E+03 -0.73803618870E+03  0.16131730085E+04  0.17941678014E+04  0.12500431637E+03 0.  0.
        6    2    1    2  501    0 -0.23746041670E+03  0.73803618870E+03  0.21236253418E+03  0.82285336249E+03  0.17579802304E+03 0.  0.
       24    2    4    4    0    0 -0.25901877070E+03  0.67269638992E+03  0.20443662615E+03  0.75343461900E+03  0.79109003335E+02 0.  0.
      -13    1    5    5    0    0 -0.18512903054E+03  0.42606211251E+03  0.97618347691E+02  0.47469046192E+03  0.10565999895E+00 0.  1.
       14    1    5    5    0    0 -0.73889740155E+02  0.24663427742E+03  0.10681827845E+03  0.27874415708E+03  0.00000000000E+00 0. -1.
        5    1    4    4  501    0  0.21558353997E+02  0.65339798774E+02  0.79259080371E+01  0.69418743487E+02  0.46999998093E+01 0. -1.
        5    1    3    3  502    0  0.21446194174E+02 -0.10397063494E+03  0.32970468343E+03  0.34640597635E+03  0.46999998093E+01 0.  1.
       -5    1    3    3    0  502  0.21601422253E+03 -0.63406555376E+03  0.12834683250E+04  0.14477618251E+04  0.46999998093E+01 0.  1.
</event>
<event>
10   0  0.1583500E-03  0.2459824E+03  0.7818609E-02  0.1121161E+00
       21   -1    0    0  501  503  0.00000000000E+00  0.00000000000E+00  0.75357570077E+02  0.75357570077E+02  0.00000000000E+00 0.  1.
        2   -1    0    0  503    0  0.00000000000E+00  0.00000000000E+00 -0.75079124817E+03  0.75079124818E+03  0.25500000920E-02 0. -1.
       25    2    1    2    0    0 -0.17498922724E+03 -0.12696966513E+02 -0.41705698020E+03  0.46940543529E+03  0.12498998096E+03 0.  0.
        6    2    1    2  501    0  0.17498922724E+03  0.12696966513E+02 -0.25837669790E+03  0.35674338296E+03  0.17240905041E+03 0.  0.
       24    2    4    4    0    0  0.12804337145E+03 -0.54426911001E+02 -0.15638524694E+03  0.22584695682E+03  0.84812197437E+02 0.  0.
      -11    1    5    5    0    0  0.13941185124E+03 -0.57773491551E+02 -0.14205376099E+03  0.20725035972E+03  0.51099999109E-03 0.  1.
       12    1    5    5    0    0 -0.11368479797E+02  0.33465805494E+01 -0.14331485949E+02  0.18596597102E+02  0.00000000000E+00 0. -1.
        5    1    4    4  501    0  0.46945855796E+02  0.67123877514E+02 -0.10199145096E+03  0.13089642614E+03  0.46999998093E+01 0. -1.
        5    1    3    3  502    0 -0.15784122820E+03  0.29724208072E+02 -0.25903776835E+03  0.30482788142E+03  0.46999998093E+01 0.  1.
       -5    1    3    3    0  502 -0.17147999039E+02 -0.42421174585E+02 -0.15801921185E+03  0.16457755386E+03  0.46999998093E+01 0.  1.
</event>
<event>
10   0  0.1583500E-03  0.1757768E+03  0.7818609E-02  0.1185355E+00
       21   -1    0    0  501  503  0.00000000000E+00  0.00000000000E+00  0.29132199964E+02  0.29132199964E+02  0.00000000000E+00 0.  1.
        2   -1    0    0  503    0  0.00000000000E+00  0.00000000000E+00 -0.83079281250E+03  0.83079281250E+03  0.25500000920E-02 0.  1.
       25    2    1    2    0    0 -0.49869902260E+01  0.35244566736E+02 -0.42174717346E+03  0.44131817110E+03  0.12499600100E+03 0.  0.
        6    2    1    2  501    0  0.49869902260E+01 -0.35244566736E+02 -0.37991343907E+03  0.41860684136E+03  0.17213487995E+03 0.  0.
       24    2    4    4    0    0  0.13061044253E+02 -0.76068434148E+02 -0.16174946301E+03  0.19645961777E+03  0.80476674148E+02 0.  0.
      -11    1    5    5    0    0  0.99075098428E+01 -0.37084970969E+02 -0.98824933685E+01  0.39637324562E+02  0.51099999109E-03 0.  1.
       12    1    5    5    0    0  0.31535344102E+01 -0.38983463179E+02 -0.15186696964E+03  0.15682229321E+03  0.00000000000E+00 0. -1.
        5    1    4    4  501    0 -0.80740540270E+01  0.40823867412E+02 -0.21816397606E+03  0.22214722359E+03  0.46999998093E+01 0. -1.
        5    1    3    3  502    0 -0.68295111543E+01  0.46331592006E+02 -0.47490444891E+02  0.66863226026E+02  0.46999998093E+01 0. -1.
       -5    1    3    3    0  502  0.18425209283E+01 -0.11087025270E+02 -0.37425672857E+03  0.37445494507E+03  0.46999998093E+01 0. -1.
</event>
<event>
10   0  0.1583500E-03  0.1863265E+03  0.7818609E-02  0.1178863E+00
        2   -1    0    0  503    0  0.00000000000E+00  0.00000000000E+00  0.57018592291E+03  0.57018592292E+03  0.00000000000E+00 0. -1.
       21   -1    0    0  501  503  0.00000000000E+00  0.00000000000E+00 -0.49807123874E+02  0.49807123874E+02  0.25500000920E-02 0. -1.
       25    2    1    2    0    0  0.15874398017E+02  0.68693189375E+01  0.33136736047E+03  0.35458224534E+03  0.12500022829E+03 0.  0.
        6    2    1    2  501    0 -0.15874398017E+02 -0.68693189375E+01  0.18901143857E+03  0.26541080145E+03  0.18552192744E+03 0.  0.
       24    2    4    4    0    0  0.19339742954E+02  0.10708875377E+02  0.20639117533E+03  0.22213062252E+03  0.79094819920E+02 0.  0.
      -13    1    5    5    0    0  0.44877680855E+02  0.25465901172E+02  0.11372332103E+03  0.12488203742E+03  0.10565999895E+00 0.  1.
       14    1    5    5    0    0 -0.25537937901E+02 -0.14757025795E+02  0.92667854306E+02  0.97248585102E+02  0.00000000000E+00 0. -1.
        5    1    4    4  501    0 -0.35214140971E+02 -0.17578194315E+02 -0.17379736763E+02  0.43280178926E+02  0.46999998093E+01 0. -1.
        5    1    3    3  502    0 -0.15702840638E+02  0.35837293445E+02  0.28429063452E+02  0.48592102780E+02  0.46999998093E+01 0. -1.
       -5    1    3    3    0  502  0.31577238655E+02 -0.28967974507E+02  0.30293829702E+03  0.30599014256E+03  0.46999998093E+01 0. -1.
</event>
<event>
10   0  0.1583500E-03  0.1964094E+03  0.7818609E-02  0.1162322E+00
       21   -1    0    0  501  503  0.00000000000E+00  0.00000000000E+00  0.23436175712E+03  0.23436175712E+03  0.00000000000E+00 0. -1.
       -2   -1    0    0    0  501  0.00000000000E+00  0.00000000000E+00 -0.13377633034E+03  0.13377633037E+03  0.25500000920E-02 0. -1.
       25    2    1    2    0    0  0.44037023284E+02 -0.84592706850E+02  0.35083098713E+02  0.16109415052E+03  0.12500126417E+03 0.  0.
       -6    2    1    2    0  503 -0.44037023284E+02  0.84592706850E+02  0.65502328065E+02  0.20704393697E+03  0.17170163477E+03 0.  0.
      -24    2    4    4    0    0  0.93649200480E+00 -0.17881868718E+02  0.44135524720E+02  0.93016370134E+02  0.79896572670E+02 0.  0.
       11    1    5    5    0    0 -0.26186305980E+02 -0.22905349915E+01  0.54129148679E+02  0.60174196367E+02  0.51099999109E-03 0. -1.
      -12    1    5    5    0    0  0.27122797985E+02 -0.15591333727E+02 -0.99936239592E+01  0.32842173767E+02  0.00000000000E+00 0.  1.
       -5    1    4    4    0  503 -0.44973515289E+02  0.10247457557E+03  0.21366803346E+02  0.11402756684E+03  0.46999998093E+01 0.  1.
        5    1    3    3  502    0  0.16810143706E+02 -0.10482589647E+03  0.56846230129E+02  0.12051818693E+03  0.46999998093E+01 0. -1.
       -5    1    3    3    0  502  0.27226879579E+02  0.20233189624E+02 -0.21763131416E+02  0.40575963589E+02  0.46999998093E+01 0. -1.
</event>
<event>
10   0  0.1583500E-03  0.1973416E+03  0.7818609E-02  0.1161234E+00
        2   -1    0    0  503    0  0.00000000000E+00  0.00000000000E+00  0.21688462388E+03  0.21688462389E+03  0.00000000000E+00 0. -1.
       21   -1    0    0  501  503  0.00000000000E+00  0.00000000000E+00 -0.23209779306E+03  0.23209779306E+03  0.25500000920E-02 0.  1.
       25    2    1    2    0    0 -0.25475896644E+02  0.94846703554E+02  0.12886620932E+03  0.20464131267E+03  0.12500659367E+03 0.  0.
        6    2    1    2  501    0  0.25475896644E+02 -0.94846703554E+02 -0.14407937851E+03  0.24434110429E+03  0.17116889159E+03 0.  0.
       24    2    4    4    0    0 -0.37093744721E+02 -0.86754702653E+02 -0.13107710614E+03  0.17975326035E+03  0.78915793884E+02 0.  0.
      -13    1    5    5    0    0 -0.34046113510E+00 -0.34775942354E+02 -0.10560882019E+03  0.11118775178E+03  0.10565999895E+00 0.  1.
       14    1    5    5    0    0 -0.36753283586E+02 -0.51978760299E+02 -0.25468285948E+02  0.68565508572E+02  0.00000000000E+00 0. -1.
        5    1    4    4  501    0  0.62569641366E+02 -0.80920009012E+01 -0.13002272371E+02  0.64587843935E+02  0.46999998093E+01 0. -1.
        5    1    3    3  502    0 -0.29724407699E-01 -0.11526123230E+02  0.86282561453E+02  0.87175815507E+02  0.46999998093E+01 0. -1.
       -5    1    3    3    0  502 -0.25446172237E+02  0.10637282678E+03  0.42583647864E+02  0.11746549716E+03  0.46999998093E+01 0. -1.
</event>
<event>
10   0  0.1583500E-03  0.2124260E+03  0.7818609E-02  0.1147282E+00
       21   -1    0    0  501  503  0.00000000000E+00  0.00000000000E+00  0.39611854489E+02  0.39611854489E+02  0.00000000000E+00 0. -1.
        4   -1    0    0  503    0  0.00000000000E+00  0.00000000000E+00 -0.11875467174E+04  0.11875473964E+04  0.12699999809E+01 0.  1.
       25    2    1    2    0    0  0.10026692302E+03 -0.75050463927E+02 -0.80135883482E+03  0.82066231580E+03  0.12499850574E+03 0.  0.
        6    2    1    2  501    0 -0.10026692302E+03  0.75050463927E+02 -0.34657602804E+03  0.40649693513E+03  0.17157735011E+03 0.  0.
       24    2    4    4    0    0  0.15755205588E+02  0.34753340384E+02 -0.17022153289E+03  0.19153649587E+03  0.79087532631E+02 0.  0.
      -15    1    5    5    0    0  0.74166839128E+01 -0.24736658355E+02 -0.34643524330E+02  0.43246282772E+02  0.17769999504E+01 0.  1.
       16    1    5    5    0    0  0.83385216749E+01  0.59489998738E+02 -0.13557800856E+03  0.14829021309E+03  0.00000000000E+00 0. -1.
        5    1    4    4  501    0 -0.11602212861E+03  0.40297123543E+02 -0.17635449515E+03  0.21496043927E+03  0.46999998093E+01 0. -1.
        5    1    3    3  502    0  0.91383815827E+02 -0.10830282600E+03 -0.66516452077E+03  0.68010766324E+03  0.46999998093E+01 0. -1.
       -5    1    3    3    0  502  0.88831071904E+01  0.33252362069E+02 -0.13619431405E+03  0.14055465256E+03  0.46999998093E+01 0. -1.
</event>
<event>
10   0  0.1583500E-03  0.2474703E+03  0.7818609E-02  0.1119979E+00
       21   -1    0    0  501  503  0.00000000000E+00  0.00000000000E+00  0.18075196851E+03  0.18075196851E+03  0.00000000000E+00 0.  1.
        2   -1    0    0  503    0  0.00000000000E+00  0.00000000000E+00 -0.31800957813E+03  0.31800957814E+03  0.25500000920E-02 0. -1.
       25    2    1    2    0    0 -0.16660039767E+03  0.64018740292E+02 -0.45279743392E+01  0.21794361570E+03  0.12499930184E+03 0.  0.
        6    2    1    2  501    0  0.16660039767E+03 -0.64018740292E+02 -0.13272963527E+03  0.28081793095E+03  0.17142771844E+03 0.  0.
       24    2    4    4    0    0  0.77326043381E+02 -0.76292402375E+02 -0.11010867356E+02  0.12929862004E+03  0.69260712530E+02 0.  0.
      -13    1    5    5    0    0  0.55982290040E+02 -0.34917502117E+02 -0.37340981327E+02  0.75812985713E+02  0.10565999895E+00 0.  1.
       14    1    5    5    0    0  0.21343753341E+02 -0.41374900259E+02  0.26330113971E+02  0.53485634331E+02  0.00000000000E+00 0. -1.
        5    1    4    4  501    0  0.89274354290E+02  0.12273662084E+02 -0.12171876792E+03  0.15151931090E+03  0.46999998093E+01 0. -1.
        5    1    3    3  502    0 -0.16535950818E+03  0.74109743356E+02 -0.35761878208E+02  0.18476207115E+03  0.46999998093E+01 0.  1.
       -5    1    3    3    0  502 -0.12408894948E+01 -0.10091003064E+02  0.31233903869E+02  0.33181544550E+02  0.46999998093E+01 0.  1.
</event>
<event>
10   0  0.1583500E-03  0.2729187E+03  0.7818609E-02  0.1104763E+00
        2   -1    0    0  503    0  0.00000000000E+00  0.00000000000E+00  0.23937411609E+04  0.23937411609E+04  0.00000000000E+00 0.  1.
       21   -1    0    0  501  503  0.00000000000E+00  0.00000000000E+00 -0.39219671513E+02  0.39219671513E+02  0.25500000920E-02 0.  1.
       25    2    1    2    0    0 -0.20003453733E+03  0.38236388526E+02  0.17905417339E+04  0.18064165314E+04  0.12500058538E+03 0.  0.
        6    2    1    2  501    0  0.20003453733E+03 -0.38236388526E+02  0.56397975545E+03  0.62654430104E+03  0.18168312820E+03 0.  0.
       24    2    4    4    0    0  0.14312988275E+03  0.46855924858E+02  0.33159966925E+03  0.37257297200E+03  0.78553407248E+02 0.  0.
      -13    1    5    5    0    0  0.14784890698E+03  0.49307677721E+02  0.27797963298E+03  0.31868987102E+03  0.10565999895E+00 0.  1.
       14    1    5    5    0    0 -0.47190242267E+01 -0.24517528627E+01  0.53620036269E+02  0.53883100980E+02  0.00000000000E+00 0. -1.
        5    1    4    4  501    0  0.56904654576E+02 -0.85092313384E+02  0.23238008620E+03  0.25397132903E+03  0.46999998093E+01 0. -1.
        5    1    3    3  502    0 -0.96298203266E+01  0.20676394545E+02  0.61295926489E+03  0.61340149751E+03  0.46999998093E+01 0. -1.
       -5    1    3    3    0  502 -0.19040471700E+03  0.17559993981E+02  0.11775824691E+04  0.11930150339E+04  0.46999998093E+01 0. -1.
</event>
<event>
10   0  0.1583500E-03  0.1768944E+03  0.7818609E-02  0.1183610E+00
       21   -1    0    0  501  503  0.00000000000E+00  0.00000000000E+00  0.39258321570E+02  0.39258321570E+02  0.00000000000E+00 0.  1.
        2   -1    0    0  503    0  0.00000000000E+00  0.00000000000E+00 -0.13998454811E+04  0.13998454811E+04  0.25500000920E-02 0.  1.
       25    2    1    2    0    0 -0.42941625335E+02  0.10385202912E+02 -0.11759645980E+04  0.11834142753E+04  0.12499910285E+03 0.  0.
        6    2    1    2  501    0  0.42941625335E+02 -0.10385202912E+02 -0.18462256154E+03  0.25568952733E+03  0.17128867019E+03 0.  0.
       24    2    4    4    0    0  0.64257916767E+02 -0.99480635087E+01 -0.20299640860E+03  0.22715422244E+03  0.78507675005E+02 0.  0.
      -13    1    5    5    0    0  0.57093605607E+02 -0.63702606884E+01 -0.56963336568E+02  0.80901748432E+02  0.10565999895E+00 0.  1.
       14    1    5    5    0    0  0.71643111601E+01 -0.35778028203E+01 -0.14603307203E+03  0.14625247401E+03  0.00000000000E+00 0. -1.
        5    1    4    4  501    0 -0.21316291432E+02 -0.43713940331E+00  0.18373847061E+02  0.28535304892E+02  0.46999998093E+01 0. -1.
        5    1    3    3  502    0  0.27633893313E+02  0.29620720429E+02 -0.17163798666E+03  0.17641629064E+03  0.46999998093E+01 0.  1.
       -5    1    3    3    0  502 -0.70575518648E+02 -0.19235517517E+02 -0.10043266113E+04  0.10069979847E+04  0.46999998093E+01 0.  1.
</event>
<event>
10   0  0.1583500E-03  0.1804725E+03  0.7818609E-02  0.1178859E+00
       -4   -1    0    0    0  501  0.00000000000E+00  0.00000000000E+00  0.48079299596E+03  0.48079467329E+03  0.00000000000E+00 0. -1.
       21   -1    0    0  501  503  0.00000000000E+00  0.00000000000E+00 -0.98989844400E+02  0.98989844400E+02  0.12699999809E+01 0. -1.
       25    2    1    2    0    0  0.56463618442E+02  0.21911990129E+02  0.37420962389E+03  0.39915238549E+03  0.12498603408E+03 0.  0.
       -6    2    1    2    0  503 -0.56463618442E+02 -0.21911990129E+02  0.75935276760E+01  0.18063213220E+03  0.17000597049E+03 0.  0.
      -24    2    4    4    0    0 -0.18861142811E+02  0.46494907101E+02 -0.21893209091E+02  0.97055775462E+02  0.80143570246E+02 0.  0.
       15    1    5    5    0    0 -0.93698811613E+01 -0.22261789146E+02  0.18807737543E+00  0.24219311115E+02  0.17769999504E+01 0. -1.
      -16    1    5    5    0    0 -0.94912616493E+01  0.68756696247E+02 -0.22081286466E+02  0.72836464347E+02  0.00000000000E+00 0.  1.
       -5    1    4    4    0  503 -0.37602475632E+02 -0.68406897231E+02  0.29486736767E+02  0.83576356739E+02  0.46999998093E+01 0.  1.
        5    1    3    3  502    0 -0.23988266615E+02 -0.33167029131E+02  0.10523708093E+03  0.11301514039E+03  0.46999998093E+01 0.  1.
       -5    1    3    3    0  502  0.80451885057E+02  0.55079019261E+02  0.26897254296E+03  0.28613724511E+03  0.46999998093E+01 0.  1.
</event>
<event>
10   0  0.1583500E-03  0.1998961E+03  0.7818609E-02  0.1158919E+00
       21   -1    0    0  501  503  0.00000000000E+00  0.00000000000E+00  0.29594753124E+02  0.29594753124E+02  0.00000000000E+00 0.  1.
        2   -1    0    0  503    0  0.00000000000E+00  0.00000000000E+00 -0.14809245204E+04  0.14809245204E+04  0.25500000920E-02 0. -1.
       25    2    1    2    0    0 -0.91457274327E+02  0.45468525617E+02 -0.10481327694E+04  0.10604900690E+04  0.12500025795E+03 0.  0.
        6    2    1    2  501    0  0.91457274327E+02 -0.45468525617E+02 -0.40319699788E+03  0.45002920444E+03  0.17183319209E+03 0.  0.
       24    2    4    4    0    0  0.35904453891E+02 -0.91868174675E+02 -0.24322603567E+03  0.27438228008E+03  0.79986498018E+02 0.  0.
      -11    1    5    5    0    0  0.31371459988E+02 -0.30898623481E+02 -0.31856083181E+02  0.54347984974E+02  0.51099999109E-03 0.  1.
       12    1    5    5    0    0  0.45329939028E+01 -0.60969551194E+02 -0.21136995249E+03  0.22003429510E+03  0.00000000000E+00 0. -1.
        5    1    4    4  501    0  0.55552820436E+02  0.46399649058E+02 -0.15997096221E+03  0.17564692436E+03  0.46999998093E+01 0. -1.
        5    1    3    3  502    0 -0.71366420767E+02  0.60594556194E+02 -0.36390773772E+03  0.37578690481E+03  0.46999998093E+01 0. -1.
       -5    1    3    3    0  502 -0.20090853560E+02 -0.15126030577E+02 -0.68422503163E+03  0.68470316423E+03  0.46999998093E+01 0. -1.
</event>
<event>
10   0  0.1583500E-03  0.1918709E+03  0.7818609E-02  0.1167823E+00
       21   -1    0    0  501  503  0.00000000000E+00  0.00000000000E+00  0.10838327552E+03  0.10838327552E+03  0.00000000000E+00 0. -1.
        2   -1    0    0  503    0  0.00000000000E+00  0.00000000000E+00 -0.42589054623E+03  0.42589054624E+03  0.25500000920E-02 0. -1.
       25    2    1    2    0    0  0.46539989462E+02  0.65377544776E+02 -0.30825531530E+03  0.34217995744E+03  0.12500235951E+03 0.  0.
        6    2    1    2  501    0 -0.46539989462E+02 -0.65377544776E+02 -0.92519554115E+01  0.19209386433E+03  0.17428212775E+03 0.  0.
       24    2    4    4    0    0  0.17736253386E+02 -0.56941576074E+02  0.44286636173E+02  0.10788536268E+03  0.78236996153E+02 0.  0.
      -13    1    5    5    0    0 -0.16990318931E+02  0.48359949323E+01 -0.84161350265E+01  0.19567837826E+02  0.10565999895E+00 0.  1.
       14    1    5    5    0    0  0.34726572316E+02 -0.61777571006E+02  0.52702771200E+02  0.88317524854E+02  0.00000000000E+00 0. -1.
        5    1    4    4  501    0 -0.64276242848E+02 -0.84359687025E+01 -0.53538591585E+02  0.84208501647E+02  0.46999998093E+01 0. -1.
        5    1    3    3  502    0  0.64205718650E+02  0.92778026336E+02 -0.26289021157E+03  0.28611796486E+03  0.46999998093E+01 0. -1.
       -5    1    3    3    0  502 -0.17665729188E+02 -0.27400481560E+02 -0.45365103724E+02  0.56061992575E+02  0.46999998093E+01 0. -1.
</event>
<event>
10   0  0.1583500E-03  0.2033997E+03  0.7818609E-02  0.1158015E+00
        2   -1    0    0  503    0  0.00000000000E+00  0.00000000000E+00  0.80110216300E+03  0.80110216301E+03  0.00000000000E+00 0.  1.
       21   -1    0    0  501  503  0.00000000000E+00  0.00000000000E+00 -0.27614649078E+03  0.27614649078E+03  0.25500000920E-02 0.  1.
       25    2    1    2    0    0  0.41566227876E+02  0.84479803863E+02  0.75449722860E+03  0.77055536216E+03  0.12499963849E+03 0.  0.
        6    2    1    2  501    0 -0.41566227876E+02 -0.84479803863E+02 -0.22954155638E+03  0.30669329163E+03  0.18029659027E+03 0.  0.
       24    2    4    4    0    0 -0.80325331749E+01 -0.37786617676E+02 -0.23201235113E+03  0.24896152272E+03  0.81607344356E+02 0.  0.
      -13    1    5    5    0    0  0.88149599749E+01  0.23479368727E+02 -0.89058965139E+02  0.92522941538E+02  0.10565999895E+00 0.  1.
       14    1    5    5    0    0 -0.16847493150E+02 -0.61265986404E+02 -0.14295338599E+03  0.15643858118E+03  0.00000000000E+00 0. -1.
        5    1    4    4  501    0 -0.33533694701E+02 -0.46693186187E+02  0.24707947477E+01  0.57731768910E+02  0.46999998093E+01 0. -1.
        5    1    3    3  502    0 -0.18305885510E+02  0.13172539831E+02  0.48202432822E+03  0.48257451678E+03  0.46999998093E+01 0.  1.
       -5    1    3    3    0  502  0.59872113386E+02  0.71307264032E+02  0.27247290038E+03  0.28798084538E+03  0.46999998093E+01 0.  1.
</event>
<event>
10   0  0.1583500E-03  0.2295524E+03  0.7818609E-02  0.1133245E+00
        2   -1    0    0  503    0  0.00000000000E+00  0.00000000000E+00  0.49784544937E+03  0.49784544937E+03  0.00000000000E+00 0. -1.
       21   -1    0    0  501  503  0.00000000000E+00  0.00000000000E+00 -0.14026449648E+03  0.14026449648E+03  0.25500000920E-02 0. -1.
       25    2    1    2    0    0  0.23475533429E+02 -0.15005411411E+03  0.35808846208E+03  0.40855700687E+03  0.12499657338E+03 0.  0.
        6    2    1    2  501    0 -0.23475533429E+02  0.15005411411E+03 -0.50750919699E+00  0.22955293898E+03  0.17212482796E+03 0.  0.
       24    2    4    4    0    0 -0.10940156934E+02  0.16932378208E+03 -0.32653711352E+02  0.18975439531E+03  0.78423436939E+02 0.  0.
      -13    1    5    5    0    0  0.27953883513E+02  0.38440629304E+02  0.58515308797E+01  0.47888967022E+02  0.10565999895E+00 0.  1.
       14    1    5    5    0    0 -0.38894040447E+02  0.13088315278E+03 -0.38505242231E+02  0.14186542828E+03  0.00000000000E+00 0. -1.
        5    1    4    4  501    0 -0.12535376495E+02 -0.19269667970E+02  0.32146202155E+02  0.39798543676E+02  0.46999998093E+01 0. -1.
        5    1    3    3  502    0  0.47483833616E+02 -0.64221064937E+02  0.67843574565E+02  0.10489947686E+03  0.46999998093E+01 0.  1.
       -5    1    3    3    0  502 -0.24008300187E+02 -0.85833049172E+02  0.29024488752E+03  0.30365753002E+03  0.46999998093E+01 0.  1.
</event>
<event>
10   0  0.1583500E-03  0.2039403E+03  0.7818609E-02  0.1155008E+00
        2   -1    0    0  503    0  0.00000000000E+00  0.00000000000E+00  0.25725517949E+03  0.25725517950E+03  0.00000000000E+00 0.  1.
       21   -1    0    0  501  503  0.00000000000E+00  0.00000000000E+00 -0.29544938880E+03  0.29544938880E+03  0.25500000920E-02 0.  1.
       25    2    1    2    0    0 -0.21454876711E+02 -0.10799737983E+03  0.18595956530E+03  0.24965911845E+03  0.12499987886E+03 0.  0.
        6    2    1    2  501    0  0.21454876711E+02  0.10799737983E+03 -0.22415377462E+03  0.30304544985E+03  0.17166212225E+03 0.  0.
       24    2    4    4    0    0 -0.17937212845E+02  0.32532121444E+02 -0.19335585260E+03  0.21239588316E+03  0.79658288441E+02 0.  0.
      -11    1    5    5    0    0 -0.22672362281E+02  0.56427855036E+02 -0.11166660406E+03  0.12715175696E+03  0.51099999109E-03 0.  1.
       12    1    5    5    0    0  0.47351494363E+01 -0.23895733593E+02 -0.81689248546E+02  0.85244126203E+02  0.00000000000E+00 0. -1.
        5    1    4    4  501    0  0.39392089555E+02  0.75465258387E+02 -0.30797922014E+02  0.90649566693E+02  0.46999998093E+01 0. -1.
        5    1    3    3  502    0 -0.55604639360E+02 -0.28970811807E+02  0.26191706397E+02  0.68112255412E+02  0.46999998093E+01 0. -1.
       -5    1    3    3    0  502  0.34149762650E+02 -0.79026568024E+02  0.15976785890E+03  0.18154686304E+03  0.46999998093E+01 0. -1.
</event>
<event>
10   0  0.1583500E-03  0.1774663E+03  0.7818609E-02  0.1182958E+00
        2   -1    0    0  503    0  0.00000000000E+00  0.00000000000E+00  0.55229586376E+03  0.55229586377E+03  0.00000000000E+00 0. -1.
       21   -1    0    0  501  503  0.00000000000E+00  0.00000000000E+00 -0.51522536386E+02  0.51522536386E+02  0.25500000920E-02 0. -1.
       25    2    1    2    0    0  0.11839937977E+00 -0.46092826372E+02  0.33680925205E+03  0.36220195834E+03  0.12500089481E+03 0.  0.
        6    2    1    2  501    0 -0.11839937977E+00  0.46092826372E+02  0.16396407533E+03  0.24161644181E+03  0.17137597350E+03 0.  0.
       24    2    4    4    0    0 -0.50504923719E+02 -0.56735702730E+01  0.12894872731E+03  0.16120048412E+03  0.82309690103E+02 0.  0.
      -15    1    5    5    0    0 -0.70533362349E+02  0.58060860160E+00  0.73365200885E+02  0.10178851969E+03  0.17769999504E+01 0.  1.
       16    1    5    5    0    0  0.20028438630E+02 -0.62541788746E+01  0.55583526425E+02  0.59411964428E+02  0.00000000000E+00 0. -1.
        5    1    4    4  501    0  0.50386524339E+02  0.51766396645E+02  0.35015348022E+02  0.80415957694E+02  0.46999998093E+01 0. -1.
        5    1    3    3  502    0 -0.35864975234E+01  0.37908562079E+02  0.48474793426E+02  0.61820851169E+02  0.46999998093E+01 0.  1.
       -5    1    3    3    0  502  0.37048969032E+01 -0.84001388450E+02  0.28833445862E+03  0.30038110718E+03  0.46999998093E+01 0.  1.
</event>
<event>
10   0  0.1583500E-03  0.2056933E+03  0.7818609E-02  0.1152835E+00
       21   -1    0    0  501  503  0.00000000000E+00  0.00000000000E+00  0.62654784399E+02  0.62654784399E+02  0.00000000000E+00 0.  1.
        2   -1    0    0  503    0  0.00000000000E+00  0.00000000000E+00 -0.70731525306E+03  0.70731525306E+03  0.25500000920E-02 0. -1.
       25    2    1    2    0    0  0.74225264180E+02 -0.89797978733E+02 -0.47009631571E+03  0.50018790980E+03  0.12499732892E+03 0.  0.
        6    2    1    2  501    0 -0.74225264180E+02  0.89797978733E+02 -0.17456415295E+03  0.26978212767E+03  0.16951898444E+03 0.  0.
       24    2    4    4    0    0 -0.95172066906E+02  0.38511154215E+02 -0.59974987692E+02  0.14241700800E+03  0.78388606964E+02 0.  0.
      -11    1    5    5    0    0 -0.51277208487E+02  0.10826360596E+02  0.11922323442E+02  0.53746664925E+02  0.51099999109E-03 0.  1.
       12    1    5    5    0    0 -0.43894858419E+02  0.27684793619E+02 -0.71897311134E+02  0.88670343079E+02  0.00000000000E+00 0. -1.
        5    1    4    4  501    0  0.20946802726E+02  0.51286824518E+02 -0.11458916526E+03  0.12736511966E+03  0.46999998093E+01 0. -1.
        5    1    3    3  502    0 -0.32648874455E+02 -0.21549012497E+02 -0.68525883446E+02  0.79045528925E+02  0.46999998093E+01 0.  1.
       -5    1    3    3    0  502  0.10687413864E+03 -0.68248966236E+02 -0.40157043226E+03  0.42114238087E+03  0.46999998093E+01 0.  1.
</event>
<event>
10   0  0.1583500E-03  0.2273704E+03  0.7818609E-02  0.1136128E+00
       21   -1    0    0  501  503  0.00000000000E+00  0.00000000000E+00  0.75497619205E+02  0.75497619205E+02  0.00000000000E+00 0.  1.
       -2   -1    0    0    0  501  0.00000000000E+00  0.00000000000E+00 -0.65056827701E+03  0.65056827701E+03  0.25500000920E-02 0. -1.
       25    2    1    2    0    0  0.13213875673E+03 -0.50200247774E+02 -0.38867339926E+03  0.43205696677E+03  0.12500198131E+03 0.  0.
       -6    2    1    2    0  503 -0.13213875673E+03  0.50200247774E+02 -0.18639725854E+03  0.29400892945E+03  0.17809154023E+03 0.  0.
      -24    2    4    4    0    0  0.10210502176E+02  0.22768525907E+02 -0.67808530337E+02  0.10665582078E+03  0.78452579261E+02 0.  0.
       15    1    5    5    0    0  0.71001445791E+01  0.14980332610E+02 -0.85482416590E+02  0.87093189705E+02  0.17769999504E+01 0. -1.
      -16    1    5    5    0    0  0.31103575966E+01  0.77881932968E+01  0.17673886253E+02  0.19562631073E+02  0.00000000000E+00 0.  1.
       -5    1    4    4    0  503 -0.14234925890E+03  0.27431721867E+02 -0.11858872820E+03  0.18735310867E+03  0.46999998093E+01 0.  1.
        5    1    3    3  502    0  0.35268639478E+02  0.24230427774E+01 -0.26050574467E+03  0.26293550743E+03  0.46999998093E+01 0.  1.
       -5    1    3    3    0  502  0.96870117249E+02 -0.52623290551E+02 -0.12816765460E+03  0.16912145933E+03  0.46999998093E+01 0.  1.
</event>
<event>
10   0  0.1583500E-03  0.1850748E+03  0.7818609E-02  0.1170830E+00
        2   -1    0    0  503    0  0.00000000000E+00  0.00000000000E+00  0.26087680579E+04  0.26087680579E+04  0.00000000000E+00 0.  1.
       21   -1    0    0  501  503  0.00000000000E+00  0.00000000000E+00 -0.16037883596E+02  0.16037883596E+02  0.25500000920E-02 0.  1.
       25    2    1    2    0    0 -0.45943895788E+02  0.78337946885E+02  0.19457595146E+04  0.19518841698E+04  0.12499619244E+03 0.  0.
        6    2    1    2  501    0  0.45943895788E+02 -0.78337946885E+02  0.64697065967E+03  0.67292177168E+03  0.16126066117E+03 0.  0.
       24    2    4    4    0    0  0.23191361711E+02  0.10671400467E+02  0.25068615921E+03  0.26610014365E+03  0.85522032179E+02 0.  0.
      -13    1    5    5    0    0  0.20488683595E+02 -0.35484110966E+02  0.89877913773E+02  0.98777319435E+02  0.10565999895E+00 0.  1.
       14    1    5    5    0    0  0.27026781167E+01  0.46155511433E+02  0.16080824543E+03  0.16732282422E+03  0.00000000000E+00 0. -1.
        5    1    4    4  501    0  0.22752534077E+02 -0.89009347351E+02  0.39628450046E+03  0.40682162802E+03  0.46999998093E+01 0. -1.
        5    1    3    3  502    0  0.11459830350E+02  0.88879398327E+02  0.14297052022E+04  0.14325187365E+04  0.46999998093E+01 0.  1.
       -5    1    3    3    0  502 -0.57403726138E+02 -0.10541451442E+02  0.51605431237E+03  0.51936543328E+03  0.46999998093E+01 0.  1.
</event>
<event>
10   0  0.1583500E-03  0.2031421E+03  0.7818609E-02  0.1155741E+00
       -4   -1    0    0    0  501  0.00000000000E+00  0.00000000000E+00  0.35551296241E+03  0.35551523081E+03  0.00000000000E+00 0.  1.
       21   -1    0    0  501  503  0.00000000000E+00  0.00000000000E+00 -0.14757878208E+03  0.14757878208E+03  0.12699999809E+01 0.  1.
       25    2    1    2    0    0  0.93739516876E+02  0.55089820880E+02  0.24583139962E+03  0.29644720761E+03  0.12500353782E+03 0.  0.
       -6    2    1    2    0  503 -0.93739516876E+02 -0.55089820880E+02 -0.37897219294E+02  0.20664680528E+03  0.17159463137E+03 0.  0.
      -24    2    4    4    0    0  0.22957742117E+01 -0.68243029589E+02 -0.31360103978E+02  0.10938114892E+03  0.79488351034E+02 0.  0.
       13    1    5    5    0    0 -0.30315902432E+02 -0.14959803443E+02  0.90286812557E+01  0.34991111851E+02  0.10565999895E+00 0. -1.
      -14    1    5    5    0    0  0.32611676643E+02 -0.53283226146E+02 -0.40388785233E+02  0.74390037066E+02  0.00000000000E+00 0.  1.
       -5    1    4    4    0  503 -0.96035291088E+02  0.13153208709E+02 -0.65371153166E+01  0.97265656367E+02  0.46999998093E+01 0.  1.
        5    1    3    3  502    0 -0.14056829651E+02  0.33237078012E+01  0.12662530177E+03  0.12753312722E+03  0.46999998093E+01 0.  1.
       -5    1    3    3    0  502  0.10779634653E+03  0.51766113079E+02  0.11920609786E+03  0.16891408039E+03  0.46999998093E+01 0.  1.
</event>
<event>
10   0  0.1583500E-03  0.2843589E+03  0.7818609E-02  0.1097191E+00
       21   -1    0    0  501  503  0.00000000000E+00  0.00000000000E+00  0.62773501487E+03  0.62773501487E+03  0.00000000000E+00 0. -1.
        4   -1    0    0  503    0  0.00000000000E+00  0.00000000000E+00 -0.50376419486E+03  0.50376579570E+03  0.12699999809E+01 0.  1.
       25    2    1    2    0    0  0.15472980082E+03 -0.16279010398E+03 -0.43448192636E+03  0.50481949860E+03  0.12500501039E+03 0.  0.
        6    2    1    2  501    0 -0.15472980082E+03  0.16279010398E+03  0.55845274636E+03  0.62668131197E+03  0.17440776255E+03 0.  0.
       24    2    4    4    0    0 -0.14427778837E+03  0.15529130632E+03  0.33898894390E+03  0.40679059566E+03  0.75057408647E+02 0.  0.
      -15    1    5    5    0    0 -0.30496306178E+02  0.47601809915E+02  0.40102490024E+02  0.69334871693E+02  0.17769999504E+01 0. -1.
       16    1    5    5    0    0 -0.11378148219E+03  0.10768949641E+03  0.29888645388E+03  0.33745572397E+03  0.00000000000E+00 0. -1.
        5    1    4    4  501    0 -0.10452012449E+02  0.74987976516E+01  0.21946380246E+03  0.21989071631E+03  0.46999998093E+01 0. -1.
        5    1    3    3  502    0  0.94780769781E+02 -0.17107116648E+03 -0.31503636646E+03  0.37083519320E+03  0.46999998093E+01 0. -1.
       -5    1    3    3    0  502  0.59949031036E+02  0.82810625013E+01 -0.11944555989E+03  0.13398430541E+03  0.46999998093E+01 0. -1.
</event>
<event>
10   0  0.1583500E-03  0.2200731E+03  0.7818609E-02  0.1140787E+00
        2   -1    0    0  503    0  0.00000000000E+00  0.00000000000E+00  0.95896936532E+03  0.95896936532E+03  0.00000000000E+00 0.  1.
       21   -1    0    0  501  503  0.00000000000E+00  0.00000000000E+00 -0.59096639214E+02  0.59096639214E+02  0.25500000920E-02 0. -1.
       25    2    1    2    0    0  0.74436184732E+01  0.13742248925E+03  0.68763773243E+03  0.71232776118E+03  0.12499936108E+03 0.  0.
        6    2    1    2  501    0 -0.74436184732E+01 -0.13742248925E+03  0.21223499367E+03  0.30573824336E+03  0.17173186340E+03 0.  0.
       24    2    4    4    0    0 -0.34272681484E+02 -0.13738866370E+03  0.22171147782E+03  0.27689914635E+03  0.86411204395E+02 0.  0.
      -13    1    5    5    0    0 -0.30037644853E+01  0.97924271771E+01  0.17410483517E+01  0.10390218694E+02  0.10565999895E+00 0.  1.
       14    1    5    5    0    0 -0.31268916999E+02 -0.14718109088E+03  0.21997042947E+03  0.26650892766E+03  0.00000000000E+00 0. -1.
        5    1    4    4  501    0  0.26829063011E+02 -0.33825543599E-01 -0.94764841470E+01  0.28839097007E+02  0.46999998093E+01 0. -1.
        5    1    3    3  502    0 -0.21822788454E+02 -0.15942212171E+02  0.68468963354E+02  0.73759590331E+02  0.46999998093E+01 0.  1.
       -5    1    3    3    0  502  0.29266406928E+02  0.15336470142E+03  0.61916876908E+03  0.63856817085E+03  0.46999998093E+01 0.  1.
</event>
<event>
10   0  0.1583500E-03  0.2929670E+03  0.7818609E-02  0.1092055E+00
       21   -1    0    0  501  503  0.00000000000E+00  0.00000000000E+00  0.11152874745E+03  0.11152874745E+03  0.00000000000E+00 0. -1.
        2   -1    0    0  503    0  0.00000000000E+00  0.00000000000E+00 -0.70788332224E+03  0.70788332225E+03  0.25500000920E-02 0. -1.
       25    2    1    2    0    0  0.21844870338E+03  0.94656280316E+02 -0.29280462645E+03  0.39754450373E+03  0.12500974265E+03 0.  0.
        6    2    1    2  501    0 -0.21844870338E+03 -0.94656280316E+02 -0.30354994834E+03  0.42186756598E+03  0.17073378305E+03 0.  0.
       24    2    4    4    0    0 -0.15512681885E+03 -0.11931295031E+03 -0.16652038043E+03  0.26884206185E+03  0.79038642951E+02 0.  0.
      -15    1    5    5    0    0 -0.58600797346E+02 -0.54252100147E+02 -0.21191190090E+02  0.82641200900E+02  0.17769999504E+01 0.  1.
       16    1    5    5    0    0 -0.96526021508E+02 -0.65060850162E+02 -0.14532919034E+03  0.18620086095E+03  0.00000000000E+00 0. -1.
        5    1    4    4  501    0 -0.63321884529E+02  0.24656669993E+02 -0.13702956791E+03  0.15302550413E+03  0.46999998093E+01 0. -1.
        5    1    3    3  502    0  0.14528491602E+03  0.12088405617E+03 -0.22840413535E+03  0.29649823086E+03  0.46999998093E+01 0.  1.
       -5    1    3    3    0  502  0.73163787367E+02 -0.26227775854E+02 -0.64400491105E+02  0.10104627287E+03  0.46999998093E+01 0.  1.
</event>
<event>
10   0  0.1583500E-03  0.2122349E+03  0.7818609E-02  0.1147109E+00
       21   -1    0    0  501  503  0.00000000000E+00  0.00000000000E+00  0.13621843371E+03  0.13621843371E+03  0.00000000000E+00 0. -1.
        2   -1    0    0  503    0  0.00000000000E+00  0.00000000000E+00 -0.29852766344E+03  0.29852766345E+03  0.25500000920E-02 0. -1.
       25    2    1    2    0    0  0.40798431125E+02  0.12021064442E+03 -0.20136666207E+02  0.17929221658E+03  0.12500041035E+03 0.  0.
        6    2    1    2  501    0 -0.40798431125E+02 -0.12021064442E+03 -0.14217256352E+03  0.25545388059E+03  0.17008390951E+03 0.  0.
       24    2    4    4    0    0 -0.68196836000E+02 -0.13911229170E+03 -0.12814297830E+03  0.21902773450E+03  0.86887786527E+02 0.  0.
      -13    1    5    5    0    0 -0.34030103634E+02 -0.93437190784E+02 -0.12787179528E+03  0.16198692468E+03  0.10565999895E+00 0.  1.
       14    1    5    5    0    0 -0.34166732366E+02 -0.45675100914E+02 -0.27118302284E+00  0.57040809815E+02  0.00000000000E+00 0. -1.
        5    1    4    4  501    0  0.27398404876E+02  0.18901647279E+02 -0.14029585216E+02  0.36426146092E+02  0.46999998093E+01 0. -1.
        5    1    3    3  502    0  0.22866205211E+02  0.13781633303E+03 -0.41678332357E+02  0.14586081852E+03  0.46999998093E+01 0. -1.
       -5    1    3    3    0  502  0.17932225914E+02 -0.17605688616E+02  0.21541666150E+02  0.33431398065E+02  0.46999998093E+01 0. -1.
</event>
<event>
10   0  0.1583500E-03  0.2045091E+03  0.7818609E-02  0.1154672E+00
        2   -1    0    0  503    0  0.00000000000E+00  0.00000000000E+00  0.55226712183E+03  0.55226712184E+03  0.00000000000E+00 0. -1.
       21   -1    0    0  501  503  0.00000000000E+00  0.00000000000E+00 -0.62740417943E+02  0.62740417943E+02  0.25500000920E-02 0. -1.
       25    2    1    2    0    0 -0.67476972453E+01 -0.10983733044E+03  0.24515935636E+03  0.29635507704E+03  0.12495379584E+03 0.  0.
        6    2    1    2  501    0  0.67476972453E+01  0.10983733044E+03  0.24436734753E+03  0.31865246275E+03  0.17237813347E+03 0.  0.
       24    2    4    4    0    0 -0.29072796020E+01  0.14604723917E+03  0.19836180344E+03  0.25912955831E+03  0.80389517864E+02 0.  0.
      -11    1    5    5    0    0  0.33862484960E+02  0.99720609525E+02  0.14677314070E+03  0.18064667914E+03  0.51099999109E-03 0.  1.
       12    1    5    5    0    0 -0.36769764562E+02  0.46326629644E+02  0.51588662743E+02  0.78482879176E+02  0.00000000000E+00 0. -1.
        5    1    4    4  501    0  0.96549768473E+01 -0.36209908724E+02  0.46005544081E+02  0.59522904433E+02  0.46999998093E+01 0. -1.
        5    1    3    3  502    0  0.45151081408E+02 -0.10351700303E+03  0.15195800930E+03  0.18938774157E+03  0.46999998093E+01 0.  1.
       -5    1    3    3    0  502 -0.51898778654E+02 -0.63203274191E+01  0.93201347060E+02  0.10696733547E+03  0.46999998093E+01 0.  1.
</event>
<event>
10   0  0.1583500E-03  0.1768271E+03  0.7818609E-02  0.1182702E+00
       -2   -1    0    0    0  501  0.00000000000E+00  0.00000000000E+00  0.52478775736E+03  0.52478775737E+03  0.00000000000E+00 0. -1.
       21   -1    0    0  501  503  0.00000000000E+00  0.00000000000E+00 -0.55595941700E+02  0.55595941700E+02  0.25500000920E-02 0. -1.
       25    2    1    2    0    0 -0.30629308789E+02 -0.42231530333E+02  0.32542109148E+03  0.35248496151E+03  0.12500041839E+03 0.  0.
       -6    2    1    2    0  503  0.30629308789E+02  0.42231530333E+02  0.14377072418E+03  0.22789873756E+03  0.16895607932E+03 0.  0.
      -24    2    4    4    0    0  0.71507486410E+02  0.66270854958E+02  0.12723923935E+03  0.17745773714E+03  0.76133288461E+02 0.  0.
       13    1    5    5    0    0  0.44308425116E+02  0.43500028381E+01  0.16071041743E+02  0.47333377311E+02  0.10565999895E+00 0. -1.
      -14    1    5    5    0    0  0.27199061295E+02  0.61920852120E+02  0.11116819760E+03  0.13012435983E+03  0.00000000000E+00 0.  1.
       -5    1    4    4    0  503 -0.40878177621E+02 -0.24039324625E+02  0.16531484831E+02  0.50441000416E+02  0.46999998093E+01 0.  1.
        5    1    3    3  502    0 -0.35733792576E+02 -0.24125561509E+02  0.32977283842E+03  0.33261262996E+03  0.46999998093E+01 0. -1.
       -5    1    3    3    0  502  0.51044837868E+01 -0.18105968825E+02 -0.43517469352E+01  0.19872331555E+02  0.46999998093E+01 0. -1.
</event>
<event>
10   0  0.1583500E-03  0.1773728E+03  0.7818609E-02  0.1182532E+00
       21   -1    0    0  501  503  0.00000000000E+00  0.00000000000E+00  0.49400393964E+03  0.49400393964E+03  0.00000000000E+00 0.  1.
        2   -1    0    0  503    0  0.00000000000E+00  0.00000000000E+00 -0.55758375187E+02  0.55758375245E+02  0.25500000920E-02 0.  1.
       25    2    1    2    0    0 -0.23722203288E+01  0.50155675776E+02  0.99804083896E+02  0.16765793097E+03  0.12500842936E+03 0.  0.
        6    2    1    2  501    0  0.23722203288E+01 -0.50155675776E+02  0.33844148055E+03  0.38210438391E+03  0.17011732776E+03 0.  0.
       24    2    4    4    0    0  0.52633383880E+02  0.90958266728E+01  0.14883021860E+03  0.17713744569E+03  0.79838797200E+02 0.  0.
      -13    1    5    5    0    0  0.72379927838E+02  0.23354567117E+01  0.95380187212E+02  0.11975683525E+03  0.10565999895E+00 0.  1.
       14    1    5    5    0    0 -0.19746543958E+02  0.67603699610E+01  0.53450031383E+02  0.57380610446E+02  0.00000000000E+00 0. -1.
        5    1    4    4  501    0 -0.50261163551E+02 -0.59251502449E+02  0.18961126196E+03  0.20496693822E+03  0.46999998093E+01 0. -1.
        5    1    3    3  502    0  0.19454767898E+02  0.65066465014E+02  0.40327926251E+01  0.68194473955E+02  0.46999998093E+01 0.  1.
       -5    1    3    3    0  502 -0.21826988227E+02 -0.14910789238E+02  0.95771291271E+02  0.99463457012E+02  0.46999998093E+01 0.  1.
</event>
<event>
10   0  0.1583500E-03  0.3720193E+03  0.7818609E-02  0.1055546E+00
       21   -1    0    0  501  503  0.00000000000E+00  0.00000000000E+00  0.15469500101E+03  0.15469500101E+03  0.00000000000E+00 0. -1.
        2   -1    0    0  503    0  0.00000000000E+00  0.00000000000E+00 -0.16478552713E+04  0.16478552713E+04  0.25500000920E-02 0.  1.
       25    2    1    2    0    0 -0.29291832164E+03 -0.15761067554E+03 -0.13627796820E+04  0.14083453931E+04  0.12500406588E+03 0.  0.
        6    2    1    2  501    0  0.29291832164E+03  0.15761067554E+03 -0.13038058825E+03  0.39420487913E+03  0.16660168290E+03 0.  0.
       24    2    4    4    0    0  0.13054526425E+03  0.14317592200E+03 -0.77476636610E+02  0.22275724872E+03  0.77953524488E+02 0.  0.
      -15    1    5    5    0    0  0.48281024104E+01  0.51911086539E+02 -0.30643333905E+02  0.60499943142E+02  0.17769999504E+01 0.  1.
       16    1    5    5    0    0  0.12571716184E+03  0.91264835462E+02 -0.46833302705E+02  0.16225730558E+03  0.00000000000E+00 0. -1.
        5    1    4    4  501    0  0.16237305739E+03  0.14434753540E+02 -0.52903951639E+02  0.17144763041E+03  0.46999998093E+01 0. -1.
        5    1    3    3  502    0 -0.10290062195E+03 -0.26266816017E+02 -0.24713412412E+03  0.26902759881E+03  0.46999998093E+01 0. -1.
       -5    1    3    3    0  502 -0.19001769968E+03 -0.13134385952E+03 -0.11156455579E+04  0.11393177943E+04  0.46999998093E+01 0. -1.
</event>
<event>
10   0  0.1583500E-03  0.3153221E+03  0.7818609E-02  0.1080535E+00
        2   -1    0    0  503    0  0.00000000000E+00  0.00000000000E+00  0.52607248141E+03  0.52607248142E+03  0.00000000000E+00 0. -1.
       21   -1    0    0  501  503  0.00000000000E+00  0.00000000000E+00 -0.19089092931E+03  0.19089092931E+03  0.25500000920E-02 0.  1.
       25    2    1    2    0    0  0.17697211621E+03  0.19734138239E+03  0.26235029726E+03  0.39333950645E+03  0.12500215094E+03 0.  0.
        6    2    1    2  501    0 -0.17697211621E+03 -0.19734138239E+03  0.72831254847E+02  0.32362390428E+03  0.17077847821E+03 0.  0.
       24    2    4    4    0    0 -0.29274495273E+02 -0.10895440809E+03  0.58414670383E+02  0.15083278078E+03  0.81303105259E+02 0.  0.
      -11    1    5    5    0    0 -0.22874364545E+02 -0.22583117610E+02 -0.16669389343E+02  0.36209146575E+02  0.51099999109E-03 0.  1.
       12    1    5    5    0    0 -0.64001307276E+01 -0.86371290482E+02  0.75084059725E+02  0.11462363420E+03  0.00000000000E+00 0. -1.
        5    1    4    4  501    0 -0.14769762094E+03 -0.88386974299E+02  0.14416584464E+02  0.17279112350E+03  0.46999998093E+01 0. -1.
        5    1    3    3  502    0  0.11243000911E+03  0.77150759533E+02  0.59522141611E+02  0.14885470092E+03  0.46999998093E+01 0.  1.
       -5    1    3    3    0  502  0.64542107099E+02  0.12019062286E+03  0.20282815565E+03  0.24448480553E+03  0.46999998093E+01 0.  1.
</event>
<event>
10   0  0.1583500E-03  0.1891707E+03  0.7818609E-02  0.1170914E+00
        2   -1    0    0  503    0  0.00000000000E+00  0.00000000000E+00  0.19344552640E+04  0.19344552640E+04  0.00000000000E+00 0.  1.
       21   -1    0    0  501  503  0.00000000000E+00  0.00000000000E+00 -0.20426987492E+02  0.20426987492E+02  0.25500000920E-02 0.  1.
       25    2    1    2    0    0  0.53170926172E+02  0.49030770741E+02  0.13950083339E+04  0.14024628001E+04  0.12498996098E+03 0.  0.
        6    2    1    2  501    0 -0.53170926172E+02 -0.49030770741E+02  0.51901994264E+03  0.55241945135E+03  0.17479812787E+03 0.  0.
       24    2    4    4    0    0 -0.91620705876E+02 -0.11760029904E+02  0.44232286108E+03  0.45876035676E+03  0.79239506894E+02 0.  0.
      -11    1    5    5    0    0 -0.69488380504E+02  0.27283061997E+02  0.31611572464E+03  0.32481094788E+03  0.51099999109E-03 0.  1.
       12    1    5    5    0    0 -0.22132325372E+02 -0.39043091900E+02  0.12620713645E+03  0.13394940889E+03  0.00000000000E+00 0. -1.
        5    1    4    4  501    0  0.38449779704E+02 -0.37270740838E+02  0.76697081558E+02  0.93659094590E+02  0.46999998093E+01 0. -1.
        5    1    3    3  502    0  0.72093904992E+02  0.89704437759E+01  0.12091224653E+04  0.12113121918E+04  0.46999998093E+01 0. -1.
       -5    1    3    3    0  502 -0.18922978820E+02  0.40060326965E+02  0.18588586861E+03  0.19115060835E+03  0.46999998093E+01 0. -1.
</event>
<event>
10   0  0.1583500E-03  0.2427916E+03  0.7818609E-02  0.1123366E+00
       21   -1    0    0  501  503  0.00000000000E+00  0.00000000000E+00  0.87685566854E+02  0.87685566854E+02  0.00000000000E+00 0.  1.
        2   -1    0    0  503    0  0.00000000000E+00  0.00000000000E+00 -0.91529346058E+03  0.91529346058E+03  0.25500000920E-02 0. -1.
       25    2    1    2    0    0  0.17012853153E+03 -0.19906419475E+02 -0.69437676221E+03  0.72603444971E+03  0.12500780571E+03 0.  0.
        6    2    1    2  501    0 -0.17012853153E+03  0.19906419475E+02 -0.13323113151E+03  0.27694457772E+03  0.17206911969E+03 0.  0.
       24    2    4    4    0    0 -0.16049914535E+02  0.43479473418E+02 -0.74692242222E+02  0.11037687183E+03  0.66753714672E+02 0.  0.
      -15    1    5    5    0    0 -0.40189559129E+02  0.17416752018E+02 -0.29262496542E+02  0.52706691668E+02  0.17769999504E+01 0.  1.
       16    1    5    5    0    0  0.24139644594E+02  0.26062721400E+02 -0.45429745679E+02  0.57670180166E+02  0.00000000000E+00 0. -1.
        5    1    4    4  501    0 -0.15407861700E+03 -0.23573053943E+02 -0.58538889290E+02  0.16656770589E+03  0.46999998093E+01 0. -1.
        5    1    3    3  502    0  0.18301357441E+02 -0.58782885995E+01 -0.33548641643E+03  0.33606951598E+03  0.46999998093E+01 0.  1.
       -5    1    3    3    0  502  0.15182717409E+03 -0.14028130875E+02 -0.35889034578E+03  0.38996493374E+03  0.46999998093E+01 0.  1.
</event>
<event>
10   0  0.1583500E-03  0.2293927E+03  0.7818609E-02  0.1133204E+00
       21   -1    0    0  501  503  0.00000000000E+00  0.00000000000E+00  0.87472260832E+03  0.87472260832E+03  0.00000000000E+00 0.  1.
        4   -1    0    0  503    0  0.00000000000E+00  0.00000000000E+00 -0.69777455156E+02  0.69789011657E+02  0.12699999809E+01 0.  1.
       25    2    1    2    0    0 -0.13438305680E+03 -0.72446837395E+02  0.14226168745E+03  0.24324820514E+03  0.12499580548E+03 0.  0.
        6    2    1    2  501    0  0.13438305680E+03  0.72446837395E+02  0.66268346572E+03  0.70126341484E+03  0.17121229819E+03 0.  0.
       24    2    4    4    0    0  0.89880994955E+02  0.44783572964E+02  0.62126399584E+03  0.63430557594E+03  0.79312353853E+02 0.  0.
      -13    1    5    5    0    0  0.58828760916E+02 -0.11855351395E+01  0.17546111582E+03  0.18506442914E+03  0.10565999895E+00 0.  1.
       14    1    5    5    0    0  0.31052234039E+02  0.45969108103E+02  0.44580288002E+03  0.44924114680E+03  0.00000000000E+00 0. -1.
        5    1    4    4  501    0  0.44502061840E+02  0.27663264432E+02  0.41419469874E+02  0.66957838898E+02  0.46999998093E+01 0. -1.
        5    1    3    3  502    0 -0.70216056103E+02  0.28571777284E+02  0.40435737188E+02  0.86045219693E+02  0.46999998093E+01 0.  1.
       -5    1    3    3    0  502 -0.64167000692E+02 -0.10101861468E+03  0.10182595026E+03  0.15720298545E+03  0.46999998093E+01 0.  1.
</event>
<event>
10   0  0.1583500E-03  0.2525083E+03  0.7818609E-02  0.1116717E+00
       21   -1    0    0  501  503  0.00000000000E+00  0.00000000000E+00  0.12970376117E+03  0.12970376117E+03  0.00000000000E+00 0. -1.
        4   -1    0    0  503    0  0.00000000000E+00  0.00000000000E+00 -0.44148938230E+03  0.44149120895E+03  0.12699999809E+01 0.  1.
       25    2    1    2    0    0 -0.67508266041E+02 -0.17137572233E+03 -0.11188782933E+03  0.24913973733E+03  0.12499887270E+03 0.  0.
        6    2    1    2  501    0  0.67508266041E+02  0.17137572233E+03 -0.19989779180E+03  0.32205523279E+03  0.17272359889E+03 0.  0.
       24    2    4    4    0    0 -0.38322779674E+01  0.89592414782E+02 -0.35106914080E+02  0.12468222048E+03  0.79193898414E+02 0.  0.
      -13    1    5    5    0    0  0.37138755308E+02  0.40202659696E+02 -0.93008454799E+01  0.55516284846E+02  0.10565999895E+00 0.  1.
       14    1    5    5    0    0 -0.40971033275E+02  0.49389755085E+02 -0.25806068600E+02  0.69165935630E+02  0.00000000000E+00 0. -1.
        5    1    4    4  501    0  0.71340544008E+02  0.81783307550E+02 -0.16479087772E+03  0.19737301231E+03  0.46999998093E+01 0. -1.
        5    1    3    3  502    0 -0.13353780820E+00 -0.14146521989E+03 -0.42477857331E+02  0.14777985191E+03  0.46999998093E+01 0.  1.
       -5    1    3    3    0  502 -0.67374728233E+02 -0.29910502446E+02 -0.69409972000E+02  0.10135988542E+03  0.46999998093E+01 0.  1.
</event>
<event>
10   0  0.1583500E-03  0.2376857E+03  0.7818609E-02  0.1129875E+00
        2   -1    0    0  503    0  0.00000000000E+00  0.00000000000E+00  0.92296218187E+03  0.92296218187E+03  0.00000000000E+00 0. -1.
       21   -1    0    0  501  503  0.00000000000E+00  0.00000000000E+00 -0.12739860874E+03  0.12739860874E+03  0.25500000920E-02 0. -1.
       25    2    1    2    0    0  0.13457239788E+03 -0.57402512695E+02  0.78948283095E+03  0.81259727228E+03  0.12500563115E+03 0.  0.
        6    2    1    2  501    0 -0.13457239788E+03  0.57402512695E+02  0.60807421790E+01  0.23776351834E+03  0.18732254667E+03 0.  0.
       24    2    4    4    0    0 -0.10012628629E+03 -0.10459400796E+02 -0.55157696619E+02  0.13996776029E+03  0.80087016147E+02 0.  0.
      -11    1    5    5    0    0 -0.62380307896E+01  0.22582385479E+02  0.45980382365E+01  0.23875073150E+02  0.51099999109E-03 0.  1.
       12    1    5    5    0    0 -0.93888255495E+02 -0.33041786275E+02 -0.59755734856E+02  0.11609268714E+03  0.00000000000E+00 0. -1.
        5    1    4    4  501    0 -0.34446111599E+02  0.67861913490E+02  0.61238438798E+02  0.97795758045E+02  0.46999998093E+01 0. -1.
        5    1    3    3  502    0  0.64124906786E+02 -0.60361013208E+02  0.65277497104E+03  0.65870532744E+03  0.46999998093E+01 0.  1.
       -5    1    3    3    0  502  0.70447491098E+02  0.29585005131E+01  0.13670785991E+03  0.15389194484E+03  0.46999998093E+01 0.  1.
</event>
<event>
10   0  0.1583500E-03  0.2098690E+03  0.7818609E-02  0.1148135E+00
       21   -1    0    0  501  503  0.00000000000E+00  0.00000000000E+00  0.86684078188E+02  0.86684078188E+02  0.00000000000E+00 0.  1.
       -2   -1    0    0    0  501  0.00000000000E+00  0.00000000000E+00 -0.81164453656E+03  0.81164453656E+03  0.25500000920E-02 0. -1.
       25    2    1    2    0    0  0.38991746095E+01 -0.12919640311E+03 -0.65168332368E+03  0.67603477906E+03  0.12499981597E+03 0.  0.
       -6    2    1    2    0  503 -0.38991746095E+01  0.12919640311E+03 -0.73277134688E+02  0.22229383569E+03  0.16534236233E+03 0.  0.
      -24    2    4    4    0    0  0.52035672406E+02  0.98065191882E+02 -0.80114926101E+02  0.15774381778E+03  0.78359540591E+02 0.  0.
       15    1    5    5    0    0 -0.17161276741E+02  0.23338426261E+02 -0.37310599477E+02  0.47269759063E+02  0.17769999504E+01 0. -1.
      -16    1    5    5    0    0  0.69196949146E+02  0.74726765621E+02 -0.42804326623E+02  0.11047405872E+03  0.00000000000E+00 0.  1.
       -5    1    4    4    0  503 -0.55934847015E+02  0.31131211225E+02  0.68377914126E+01  0.64550017913E+02  0.46999998093E+01 0.  1.
        5    1    3    3  502    0 -0.14043013182E+02  0.17200664019E+02 -0.18976697112E+03  0.19111949766E+03  0.46999998093E+01 0.  1.
       -5    1    3    3    0  502  0.17942187791E+02 -0.14639706713E+03 -0.46191635256E+03  0.48491528139E+03  0.46999998093E+01 0.  1.
</event>
<event>
10   0  0.1583500E-03  0.1724409E+03  0.7818609E-02  0.1189239E+00
       -2   -1    0    0    0  501  0.00000000000E+00  0.00000000000E+00  0.16667141205E+04  0.16667141205E+04  0.00000000000E+00 0. -1.
       21   -1    0    0  501  503  0.00000000000E+00  0.00000000000E+00 -0.56348376833E+02  0.56348376833E+02  0.25500000920E-02 0. -1.
       25    2    1    2    0    0  0.14261728724E+02  0.10881405112E+02  0.15257728712E+04  0.15309900888E+04  0.12500398192E+03 0.  0.
       -6    2    1    2    0  503 -0.14261728724E+02 -0.10881405112E+02  0.84592872459E+02  0.19207240857E+03  0.17150525992E+03 0.  0.
      -24    2    4    4    0    0 -0.18421159661E+02 -0.42499436967E+01 -0.11580443614E+02  0.95466643377E+02  0.92856729313E+02 0.  0.
       11    1    5    5    0    0  0.27886718985E+00 -0.46124010082E+02  0.56649278561E+01  0.46471426498E+02  0.51099999109E-03 0. -1.
      -12    1    5    5    0    0 -0.18700026851E+02  0.41874066385E+02 -0.17245371470E+02  0.48995216878E+02  0.00000000000E+00 0.  1.
       -5    1    4    4    0  503  0.41594309364E+01 -0.66314614155E+01  0.96173316073E+02  0.96605765195E+02  0.46999998093E+01 0.  1.
        5    1    3    3  502    0  0.93898439299E+01  0.13662772503E+02  0.15231018911E+04  0.15231993636E+04  0.46999998093E+01 0. -1.
       -5    1    3    3    0  502  0.48718847945E+01 -0.27813673912E+01  0.26709801057E+01  0.77907251875E+01  0.46999998093E+01 0. -1.
</event>
<event>
10   0  0.1583500E-03  0.1724582E+03  0.7818609E-02  0.1189584E+00
        2   -1    0    0  503    0  0.00000000000E+00  0.00000000000E+00  0.64863832212E+03  0.64863832212E+03  0.00000000000E+00 0. -1.
       21   -1    0    0  501  503  0.00000000000E+00  0.00000000000E+00 -0.67056784328E+02  0.67056784328E+02  0.25500000920E-02 0. -1.
       25    2    1    2    0    0  0.79481787042E+01  0.32320554454E+01  0.51631764409E+03  0.53130093455E+03  0.12499261469E+03 0.  0.
        6    2    1    2  501    0 -0.79481787042E+01 -0.32320554454E+01  0.65263893700E+02  0.18439417190E+03  0.17224463732E+03 0.  0.
       24    2    4    4    0    0 -0.49775454388E+02  0.19902783390E+01  0.94132225158E+02  0.13308857454E+03  0.79813130453E+02 0.  0.
      -11    1    5    5    0    0  0.14284246075E+02  0.22337937551E+02  0.31991466709E+02  0.41550897492E+02  0.51099999109E-03 0.  1.
       12    1    5    5    0    0 -0.64059700464E+02 -0.20347659212E+02  0.62140758449E+02  0.91537677049E+02  0.00000000000E+00 0. -1.
        5    1    4    4  501    0  0.41827275684E+02 -0.52223337844E+01 -0.28868331458E+02  0.51305597362E+02  0.46999998093E+01 0. -1.
        5    1    3    3  502    0  0.14158421840E+02  0.53924535985E+02  0.12911414289E+03  0.14071555843E+03  0.46999998093E+01 0. -1.
       -5    1    3    3    0  502 -0.62102431356E+01 -0.50692480539E+02  0.38720350120E+03  0.39058537612E+03  0.46999998093E+01 0. -1.
</event>
<event>
10   0  0.1583500E-03  0.1832380E+03  0.7818609E-02  0.1176422E+00
       21   -1    0    0  501  503  0.00000000000E+00  0.00000000000E+00  0.61222166475E+03  0.61222166475E+03  0.00000000000E+00 0. -1.
        4   -1    0    0  503    0  0.00000000000E+00  0.00000000000E+00 -0.67280096589E+02  0.67292081978E+02  0.12699999809E+01 0. -1.
       25    2    1    2    0    0 -0.91143777618E+01  0.62821576530E+02  0.45304864741E+02  0.14733615386E+03  0.12500315638E+03 0.  0.
        6    2    1    2  501    0  0.91143777618E+01 -0.62821576530E+02  0.49963670342E+03  0.53217759288E+03  0.17189104861E+03 0.  0.
       24    2    4    4    0    0 -0.19960465360E+02 -0.81062027873E+02  0.20651432151E+03  0.23701512686E+03  0.80984769131E+02 0.  0.
      -15    1    5    5    0    0 -0.44268053643E+02 -0.57337713818E+02  0.89414293982E+02  0.11508843424E+03  0.17769999504E+01 0.  1.
       16    1    5    5    0    0  0.24307588283E+02 -0.23724314055E+02  0.11710002753E+03  0.12192669262E+03  0.00000000000E+00 0. -1.
        5    1    4    4  501    0  0.29074843121E+02  0.18240451342E+02  0.29312238191E+03  0.29516246602E+03  0.46999998093E+01 0. -1.
        5    1    3    3  502    0  0.30220168912E+01 -0.37827932057E+02  0.17857089051E+02  0.42202495866E+02  0.46999998093E+01 0.  1.
       -5    1    3    3    0  502 -0.12136394653E+02  0.10064950859E+03  0.27447775691E+02  0.10513365799E+03  0.46999998093E+01 0.  1.
</event>
<event>
10   0  0.1583500E-03  0.2165993E+03  0.7818609E-02  0.1143746E+00
       21   -1    0    0  501  503  0.00000000000E+00  0.00000000000E+00  0.65002958569E+02  0.65002958569E+02  0.00000000000E+00 0.  1.
        2   -1    0    0  503    0  0.00000000000E+00  0.00000000000E+00 -0.11479183586E+04  0.11479183586E+04  0.25500000920E-02 0. -1.
       25    2    1    2    0    0 -0.13153270278E+03 -0.81189961211E+01 -0.93052642143E+03  0.94808615849E+03  0.12498469085E+03 0.  0.
        6    2    1    2  501    0  0.13153270278E+03  0.81189961211E+01 -0.15238897859E+03  0.26483515866E+03  0.17189674363E+03 0.  0.
       24    2    4    4    0    0  0.56169793727E+01  0.34091085003E+02 -0.75662928805E+02  0.11504098149E+03  0.79471983061E+02 0.  0.
      -13    1    5    5    0    0 -0.95306063313E+01  0.28420824100E+02  0.70228907578E+01  0.30788112287E+02  0.10565999895E+00 0.  1.
       14    1    5    5    0    0  0.15147585704E+02  0.56702609036E+01 -0.82685819563E+02  0.84252869198E+02  0.00000000000E+00 0. -1.
        5    1    4    4  501    0  0.12591572341E+03 -0.25972088882E+02 -0.76726049780E+02  0.14979417718E+03  0.46999998093E+01 0. -1.
        5    1    3    3  502    0 -0.50440309497E+02 -0.20604564675E+02 -0.72020777129E+03  0.72228117568E+03  0.46999998093E+01 0. -1.
       -5    1    3    3    0  502 -0.81092393287E+02  0.12485568554E+02 -0.21031865013E+03  0.22580498281E+03  0.46999998093E+01 0. -1.
</event>
<event>
10   0  0.1583500E-03  0.1834413E+03  0.7818609E-02  0.1176186E+00
        2   -1    0    0  503    0  0.00000000000E+00  0.00000000000E+00  0.15365575595E+04  0.15365575595E+04  0.00000000000E+00 0. -1.
       21   -1    0    0  501  503  0.00000000000E+00  0.00000000000E+00 -0.36994833912E+02  0.36994833912E+02  0.25500000920E-02 0. -1.
       25    2    1    2    0    0  0.11123373579E+02 -0.63130914872E+02  0.12789266116E+04  0.12866185912E+04  0.12499951718E+03 0.  0.
        6    2    1    2  501    0 -0.11123373579E+02  0.63130914872E+02  0.22063611390E+03  0.28693380221E+03  0.17187632252E+03 0.  0.
       24    2    4    4    0    0  0.15986901850E+02  0.10485298780E+03  0.16961669036E+03  0.21551412719E+03  0.80167245747E+02 0.  0.
      -15    1    5    5    0    0  0.39018786987E+02  0.61142767393E+02  0.56104857539E+02  0.91715955595E+02  0.17769999504E+01 0.  1.
       16    1    5    5    0    0 -0.23031885137E+02  0.43710220403E+02  0.11351183282E+03  0.12379817160E+03  0.00000000000E+00 0. -1.
        5    1    4    4  501    0 -0.27110275429E+02 -0.41722072924E+02  0.51019423543E+02  0.71419675019E+02  0.46999998093E+01 0. -1.
        5    1    3    3  502    0  0.38390395291E+02 -0.92414193293E+02  0.90539859916E+03  0.91092421141E+03  0.46999998093E+01 0.  1.
       -5    1    3    3    0  502 -0.27267021712E+02  0.29283278421E+02  0.37352801248E+03  0.37569437975E+03  0.46999998093E+01 0.  1.
</event>
<event>
10   0  0.1583500E-03  0.2026481E+03  0.7818609E-02  0.1156147E+00
       21   -1    0    0  501  503  0.00000000000E+00  0.00000000000E+00  0.20819122908E+03  0.20819122908E+03  0.00000000000E+00 0. -1.
        2   -1    0    0  503    0  0.00000000000E+00  0.00000000000E+00 -0.16601808199E+03  0.16601808201E+03  0.25500000920E-02 0. -1.
       25    2    1    2    0    0 -0.95925152858E+02  0.50010834273E+02 -0.77942854928E+01  0.16549181597E+03  0.12499628703E+03 0.  0.
        6    2    1    2  501    0  0.95925152858E+02 -0.50010834273E+02  0.49967432579E+02  0.20871749512E+03  0.17135790019E+03 0.  0.
       24    2    4    4    0    0  0.17384164938E+01 -0.54285395891E+02 -0.67916078650E+01  0.98567180307E+02  0.81972170870E+02 0.  0.
      -13    1    5    5    0    0  0.21974416316E+01 -0.26671476856E+02 -0.44439510768E+02  0.51875598394E+02  0.10565999895E+00 0.  1.
       14    1    5    5    0    0 -0.45902513787E+00 -0.27613919035E+02  0.37647902903E+02  0.46691581913E+02  0.00000000000E+00 0. -1.
        5    1    4    4  501    0  0.94186736365E+02  0.42745616184E+01  0.56759040444E+02  0.11015031482E+03  0.46999998093E+01 0. -1.
        5    1    3    3  502    0 -0.51196205449E+02  0.66186914246E+02  0.44297689835E+02  0.94795223470E+02  0.46999998093E+01 0. -1.
       -5    1    3    3    0  502 -0.44728947409E+02 -0.16176079973E+02 -0.52091975328E+02  0.70696592502E+02  0.46999998093E+01 0. -1.
</event>
<event>
10   0  0.1583500E-03  0.2122263E+03  0.7818609E-02  0.1146702E+00
        2   -1    0    0  503    0  0.00000000000E+00  0.00000000000E+00  0.22555991096E+03  0.22555991098E+03  0.00000000000E+00 0. -1.
       21   -1    0    0  501  503  0.00000000000E+00  0.00000000000E+00 -0.17840861774E+03  0.17840861774E+03  0.25500000920E-02 0.  1.
       25    2    1    2    0    0 -0.10701215571E+03  0.72745217107E+02  0.64274064840E+02  0.19105257017E+03  0.12500584417E+03 0.  0.
        6    2    1    2  501    0  0.10701215571E+03 -0.72745217107E+02 -0.17122771615E+02  0.21291595854E+03  0.16821577813E+03 0.  0.
       24    2    4    4    0    0  0.72617989910E+02 -0.40174078033E+01  0.39268180887E+02  0.11747749704E+03  0.83483293272E+02 0.  0.
      -15    1    5    5    0    0  0.37098788490E+02 -0.24504551451E+02 -0.17188814681E+02  0.47701218309E+02  0.17769999504E+01 0.  1.
       16    1    5    5    0    0  0.35519201420E+02  0.20487143648E+02  0.56456995567E+02  0.69776278726E+02  0.00000000000E+00 0. -1.
        5    1    4    4  501    0  0.34394165798E+02 -0.68727809304E+02 -0.56390952502E+02  0.95438461508E+02  0.46999998093E+01 0. -1.
        5    1    3    3  502    0  0.20591883101E+02  0.38226196539E+02  0.34027054259E+02  0.55364231876E+02  0.46999998093E+01 0. -1.
       -5    1    3    3    0  502 -0.12760403881E+03  0.34519020569E+02  0.30247010580E+02  0.13568833829E+03  0.46999998093E+01 0. -1.
</event>
<event>
10   0  0.1583500E-03  0.2053806E+03  0.7818609E-02  0.1153871E+00
       -4   -1    0    0    0  501  0.00000000000E+00  0.00000000000E+00  0.50705525352E+03  0.50705684398E+03  0.00000000000E+00 0.  1.
       21   -1    0    0  501  503  0.00000000000E+00  0.00000000000E+00 -0.71019243319E+02  0.71019243319E+02  0.12699999809E+01 0. -1.
       25    2    1    2    0    0  0.10936679405E+03  0.21838991226E+02  0.25018477859E+03  0.30108896561E+03  0.12499641833E+03 0.  0.
       -6    2    1    2    0  503 -0.10936679405E+03 -0.21838991226E+02  0.18585123161E+03  0.27698712169E+03  0.17246201933E+03 0.  0.
      -24    2    4    4    0    0 -0.10753868012E+03  0.33626618485E+02  0.83838307236E+02  0.16076103770E+03  0.78229996095E+02 0.  0.
       13    1    5    5    0    0 -0.51640293933E+02 -0.13805759237E+01  0.79309677011E+02  0.94650208552E+02  0.10565999895E+00 0. -1.
      -14    1    5    5    0    0 -0.55898386190E+02  0.35007194409E+02  0.45286302258E+01  0.66110829149E+02  0.00000000000E+00 0.  1.
       -5    1    4    4    0  503 -0.18281139234E+01 -0.55465609711E+02  0.10201292437E+03  0.11622608399E+03  0.46999998093E+01 0.  1.
        5    1    3    3  502    0  0.44177725392E+02 -0.29385682177E+01  0.34646017577E+01  0.44658706514E+02  0.46999998093E+01 0.  1.
       -5    1    3    3    0  502  0.65189068655E+02  0.24777559444E+02  0.24672017684E+03  0.25643025910E+03  0.46999998093E+01 0.  1.
</event>
<event>
10   0  0.1583500E-03  0.2255819E+03  0.7818609E-02  0.1136422E+00
       21   -1    0    0  501  503  0.00000000000E+00  0.00000000000E+00  0.74084392538E+02  0.74084392538E+02  0.00000000000E+00 0.  1.
        2   -1    0    0  503    0  0.00000000000E+00  0.00000000000E+00 -0.14960252373E+04  0.14960252373E+04  0.25500000920E-02 0. -1.
       25    2    1    2    0    0 -0.14148129380E+03 -0.34080596283E+02 -0.12992190276E+04  0.13133065146E+04  0.12500190462E+03 0.  0.
        6    2    1    2  501    0  0.14148129380E+03  0.34080596283E+02 -0.12272181720E+03  0.25680311525E+03  0.17236226979E+03 0.  0.
       24    2    4    4    0    0  0.33508668318E+02  0.59876412850E+02 -0.98894848702E+02  0.14316629714E+03  0.77513752765E+02 0.  0.
      -11    1    5    5    0    0 -0.18181726942E+02  0.19925896410E+02 -0.30109525932E+01  0.27141893414E+02  0.51099999109E-03 0.  1.
       12    1    5    5    0    0  0.51690395261E+02  0.39950516440E+02 -0.95883896109E+02  0.11602440372E+03  0.00000000000E+00 0. -1.
        5    1    4    4  501    0  0.10797262548E+03 -0.25795816567E+02 -0.23826968501E+02  0.11363681811E+03  0.46999998093E+01 0. -1.
        5    1    3    3  502    0 -0.36738328090E+02 -0.67813720788E+02 -0.40259687706E+03  0.40994480226E+03  0.46999998093E+01 0. -1.
       -5    1    3    3    0  502 -0.10474296570E+03  0.33733124506E+02 -0.89662215053E+03  0.90336171237E+03  0.46999998093E+01 0. -1.
</event>
<event>
10   0  0.1583500E-03  0.1759662E+03  0.7818609E-02  0.1183354E+00
        2   -1    0    0  503    0  0.00000000000E+00  0.00000000000E+00  0.15169450956E+04  0.15169450956E+04  0.00000000000E+00 0.  1.
       21   -1    0    0  501  503  0.00000000000E+00  0.00000000000E+00 -0.43235838455E+02  0.43235838455E+02  0.25500000920E-02 0.  1.
       25    2    1    2    0    0 -0.42835252031E+02  0.29837089960E+02  0.13188142161E+04  0.13257527771E+04  0.12499751458E+03 0.  0.
        6    2    1    2  501    0  0.42835252031E+02 -0.29837089960E+02  0.15489504105E+03  0.23442815696E+03  0.16804456635E+03 0.  0.
       24    2    4    4    0    0  0.65057023501E+02 -0.52931359392E+02  0.16402438066E+03  0.20077422335E+03  0.79825723908E+02 0.  0.
      -15    1    5    5    0    0  0.57359014136E+02 -0.20976875466E+02  0.41360607480E+02  0.73783083339E+02  0.17769999504E+01 0.  1.
       16    1    5    5    0    0  0.76980093647E+01 -0.31954483926E+02  0.12266377318E+03  0.12699114001E+03  0.00000000000E+00 0. -1.
        5    1    4    4  501    0 -0.22221771470E+02  0.23094269432E+02 -0.91293396052E+01  0.33653933614E+02  0.46999998093E+01 0. -1.
        5    1    3    3  502    0 -0.10731991108E+02  0.17634829661E+02  0.12332750201E+04  0.12334567395E+04  0.46999998093E+01 0.  1.
       -5    1    3    3    0  502 -0.32103260924E+02  0.12202260299E+02  0.85539195954E+02  0.92296037624E+02  0.46999998093E+01 0.  1.
</event>
<event>
10   0  0.1583500E-03  0.2126564E+03  0.7818609E-02  0.1147306E+00
       -4   -1    0    0    0  501  0.00000000000E+00  0.00000000000E+00  0.20231912304E+03  0.20232310903E+03  0.00000000000E+00 0. -1.
       21   -1    0    0  501  503  0.00000000000E+00  0.00000000000E+00 -0.65454304772E+03  0.65454304772E+03  0.12699999809E+01 0. -1.
       25    2    1    2    0    0 -0.11364572771E+03  0.50322594683E+02  0.14160690500E+03  0.22610644190E+03  0.12499557017E+03 0.  0.
       -6    2    1    2    0  503  0.11364572771E+03 -0.50322594683E+02 -0.59383082968E+03  0.63075971485E+03  0.17255448020E+03 0.  0.
      -24    2    4    4    0    0  0.79850293063E+02 -0.62017245778E+01 -0.54472246074E+03  0.55644615970E+03  0.80593043829E+02 0.  0.
       13    1    5    5    0    0  0.50111484752E+02 -0.17762668865E+02 -0.12935373749E+03  0.13985375889E+03  0.10565999895E+00 0. -1.
      -14    1    5    5    0    0  0.29738808311E+02  0.11560944287E+02 -0.41536872325E+03  0.41659240081E+03  0.00000000000E+00 0.  1.
       -5    1    4    4    0  503  0.33795434643E+02 -0.44120870105E+02 -0.49108368940E+02  0.74313555154E+02  0.46999998093E+01 0.  1.
        5    1    3    3  502    0 -0.12186576847E+03  0.26168811418E+02  0.56131364775E+02  0.13678045301E+03  0.46999998093E+01 0. -1.
       -5    1    3    3    0  502  0.82200407615E+01  0.24153783265E+02  0.85475540228E+02  0.89325988892E+02  0.46999998093E+01 0. -1.
</event>
<event>
10   0  0.1583500E-03  0.1882234E+03  0.7818609E-02  0.1172373E+00
       21   -1    0    0  501  503  0.00000000000E+00  0.00000000000E+00  0.81714420591E+03  0.81714420591E+03  0.00000000000E+00 0.  1.
        2   -1    0    0  503    0  0.00000000000E+00  0.00000000000E+00 -0.70077979400E+02  0.70077979446E+02  0.25500000920E-02 0.  1.
       25    2    1    2    0    0  0.31309448647E+02  0.59173228706E+02  0.28788871063E+02  0.14469244443E+03  0.12500140722E+03 0.  0.
        6    2    1    2  501    0 -0.31309448647E+02 -0.59173228706E+02  0.71827735544E+03  0.74252974093E+03  0.17591561683E+03 0.  0.
       24    2    4    4    0    0 -0.48308389482E+02 -0.65743963406E+02  0.23265724717E+03  0.25654505176E+03  0.70922490816E+02 0.  0.
      -13    1    5    5    0    0 -0.33246717071E+02 -0.80413892171E+02  0.18389953309E+03  0.20344726021E+03  0.10565999895E+00 0.  1.
       14    1    5    5    0    0 -0.15061672411E+02  0.14669928765E+02  0.48757714081E+02  0.53097791557E+02  0.00000000000E+00 0. -1.
        5    1    4    4  501    0  0.16998940834E+02  0.65707346992E+01  0.48562010827E+03  0.48598468916E+03  0.46999998093E+01 0. -1.
        5    1    3    3  502    0  0.12409459791E+02  0.88451743404E+02 -0.12664045849E+02  0.90333679538E+02  0.46999998093E+01 0. -1.
       -5    1    3    3    0  502  0.18899988856E+02 -0.29278514697E+02  0.41452916911E+02  0.54358764889E+02  0.46999998093E+01 0. -1.
</event>
<event>
10   0  0.1583500E-03  0.4642843E+03  0.7818609E-02  0.1024476E+00
       21   -1    0    0  501  503  0.00000000000E+00  0.00000000000E+00  0.38909080658E+03  0.38909080658E+03  0.00000000000E+00 0. -1.
        2   -1    0    0  503    0  0.00000000000E+00  0.00000000000E+00 -0.16908198181E+04  0.16908198181E+04  0.25500000920E-02 0.  1.
       25    2    1    2    0    0  0.24813249691E+03 -0.35588949513E+03 -0.15063322797E+04  0.15725425022E+04  0.12500366292E+03 0.  0.
        6    2    1    2  501    0 -0.24813249691E+03  0.35588949513E+03  0.20460326818E+03  0.50736812245E+03  0.16532648174E+03 0.  0.
       24    2    4    4    0    0 -0.49169721088E+02  0.12902403576E+03  0.40776314012E+02  0.16397988193E+03  0.78497328738E+02 0.  0.
      -15    1    5    5    0    0 -0.53393416106E+01  0.10504156576E+02 -0.20369154163E+02  0.23598856844E+02  0.17769999504E+01 0.  1.
       16    1    5    5    0    0 -0.43830379478E+02  0.11851987918E+03  0.61145468175E+02  0.14038102509E+03  0.00000000000E+00 0. -1.
        5    1    4    4  501    0 -0.19896277582E+03  0.22686545937E+03  0.16382695416E+03  0.34338824051E+03  0.46999998093E+01 0. -1.
        5    1    3    3  502    0  0.15290491154E+03 -0.20945856031E+03 -0.11012100609E+04  0.11313436652E+04  0.46999998093E+01 0.  1.
       -5    1    3    3    0  502  0.95227585362E+02 -0.14643093482E+03 -0.40512221877E+03  0.44119883706E+03  0.46999998093E+01 0.  1.
</event>
<event>
10   0  0.1583500E-03  0.2109412E+03  0.7818609E-02  0.1149990E+00
       21   -1    0    0  501  503  0.00000000000E+00  0.00000000000E+00  0.20943511719E+03  0.20943511719E+03  0.00000000000E+00 0.  1.
        2   -1    0    0  503    0  0.00000000000E+00  0.00000000000E+00 -0.27183897711E+03  0.27183897713E+03  0.25500000920E-02 0. -1.
       25    2    1    2    0    0  0.79008907789E+02  0.82744484322E+02 -0.17379153554E+03  0.24272975634E+03  0.12500071837E+03 0.  0.
        6    2    1    2  501    0 -0.79008907789E+02 -0.82744484322E+02  0.11138767562E+03  0.23854433797E+03  0.17722056795E+03 0.  0.
       24    2    4    4    0    0 -0.20846374027E+02 -0.74433134448E+02  0.13075527180E+03  0.17650279825E+03  0.89896795684E+02 0.  0.
      -11    1    5    5    0    0 -0.90409971710E+01 -0.54815865800E+02  0.14090231476E+03  0.15145950309E+03  0.51099999109E-03 0.  1.
       12    1    5    5    0    0 -0.11805376856E+02 -0.19617268648E+02 -0.10147042954E+02  0.25043295163E+02  0.00000000000E+00 0. -1.
        5    1    4    4  501    0 -0.58162533762E+02 -0.83113498738E+01 -0.19367596182E+02  0.62041539717E+02  0.46999998093E+01 0. -1.
        5    1    3    3  502    0 -0.33270384214E+02  0.84012043191E+01 -0.38491395596E+02  0.51780075636E+02  0.46999998093E+01 0.  1.
       -5    1    3    3    0  502  0.11227929200E+03  0.74343280003E+02 -0.13530013995E+03  0.19094968071E+03  0.46999998093E+01 0.  1.
</event>
<event>
10   0  0.1583500E-03  0.2002893E+03  0.7818609E-02  0.1159370E+00
       21   -1    0    0  501  503  0.00000000000E+00  0.00000000000E+00  0.43073272390E+02  0.43073272390E+02  0.00000000000E+00 0.  1.
        2   -1    0    0  503    0  0.00000000000E+00  0.00000000000E+00 -0.77117412114E+03  0.77117412114E+03  0.25500000920E-02 0. -1.
       25    2    1    2    0    0 -0.14269663838E+02 -0.96889017240E+02 -0.39275129997E+03  0.42363875220E+03  0.12500041507E+03 0.  0.
        6    2    1    2  501    0  0.14269663838E+02  0.96889017240E+02 -0.33534954877E+03  0.39060864133E+03  0.17471315306E+03 0.  0.
       24    2    4    4    0    0  0.59816551443E+02  0.89419039463E+01 -0.15340014729E+03  0.18339645925E+03  0.80278755605E+02 0.  0.
      -13    1    5    5    0    0  0.49408338672E+02  0.82102752075E+01 -0.16219383681E+03  0.16975112492E+03  0.10565999895E+00 0.  1.
       14    1    5    5    0    0  0.10408212771E+02  0.73162873880E+00  0.87936895114E+01  0.13645334328E+02  0.00000000000E+00 0. -1.
        5    1    4    4  501    0 -0.45546887605E+02  0.87947113294E+02 -0.18194940148E+03  0.20721218208E+03  0.46999998093E+01 0. -1.
        5    1    3    3  502    0  0.14141714588E+02 -0.10234918412E+03 -0.17017309032E+03  0.19913893203E+03  0.46999998093E+01 0. -1.
       -5    1    3    3    0  502 -0.28411378426E+02  0.54601668833E+01 -0.22257820965E+03  0.22449982017E+03  0.46999998093E+01 0. -1.
</event>
<event>
10   0  0.1583500E-03  0.1765704E+03  0.7818609E-02  0.1185380E+00
        2   -1    0    0  503    0  0.00000000000E+00  0.00000000000E+00  0.13532382566E+04  0.13532382566E+04  0.00000000000E+00 0. -1.
       21   -1    0    0  501  503  0.00000000000E+00  0.00000000000E+00 -0.19433994075E+02  0.19433994075E+02  0.25500000920E-02 0. -1.
       25    2    1    2    0    0 -0.19973032769E+02 -0.19980062664E+02  0.34092006990E+03  0.36420998446E+03  0.12499717506E+03 0.  0.
        6    2    1    2  501    0  0.19973032769E+02  0.19980062664E+02  0.99288419267E+03  0.10084622663E+04  0.17429571852E+03 0.  0.
       24    2    4    4    0    0 -0.53988943935E+02 -0.67406440802E+01  0.60769133454E+03  0.61529563732E+03  0.79622364195E+02 0.  0.
      -15    1    5    5    0    0 -0.20742687968E+02  0.34270446484E+02  0.18340050032E+03  0.18773285235E+03  0.17769999504E+01 0.  1.
       16    1    5    5    0    0 -0.33246255967E+02 -0.41011090564E+02  0.42429083421E+03  0.42756278496E+03  0.00000000000E+00 0. -1.
        5    1    4    4  501    0  0.73961976704E+02  0.26720706744E+02  0.38519285813E+03  0.39316662895E+03  0.46999998093E+01 0. -1.
        5    1    3    3  502    0  0.34616662429E+02 -0.36757418739E+02  0.26093492720E+03  0.26581675526E+03  0.46999998093E+01 0. -1.
       -5    1    3    3    0  502 -0.54589695198E+02  0.16777356076E+02  0.79985142707E+02  0.98393229191E+02  0.46999998093E+01 0. -1.
</event>
<event>
10   0  0.1583500E-03  0.1863873E+03  0.7818609E-02  0.1173296E+00
        2   -1    0    0  503    0  0.00000000000E+00  0.00000000000E+00  0.11035684119E+04  0.11035684119E+04  0.00000000000E+00 0.  1.
       21   -1    0    0  501  503  0.00000000000E+00  0.00000000000E+00 -0.43834907842E+02  0.43834907842E+02  0.25500000920E-02 0.  1.
       25    2    1    2    0    0  0.52826327394E+02 -0.45079747993E+02  0.86912640606E+03  0.88081134106E+03  0.12500041712E+03 0.  0.
        6    2    1    2  501    0 -0.52826327394E+02  0.45079747993E+02  0.19060709798E+03  0.26659197867E+03  0.17296650758E+03 0.  0.
       24    2    4    4    0    0 -0.53056146473E+01  0.58912462003E+02  0.19212988542E+03  0.21685294976E+03  0.81317164375E+02 0.  0.
      -11    1    5    5    0    0 -0.60990104421E+01 -0.17040215513E+02  0.12998422301E+02  0.22282860132E+02  0.51099999109E-03 0.  1.
       12    1    5    5    0    0  0.79339579487E+00  0.75952677515E+02  0.17913146312E+03  0.19457008963E+03  0.00000000000E+00 0. -1.
        5    1    4    4  501    0 -0.47520712747E+02 -0.13832714010E+02 -0.15227874411E+01  0.49739028908E+02  0.46999998093E+01 0. -1.
        5    1    3    3  502    0  0.32788568257E+02  0.13417786805E+02  0.64015648143E+02  0.73315894705E+02  0.46999998093E+01 0. -1.
       -5    1    3    3    0  502  0.20037759138E+02 -0.58497534798E+02  0.80511075792E+03  0.80749544635E+03  0.46999998093E+01 0. -1.
</event>
<event>
10   0  0.1583500E-03  0.2105559E+03  0.7818609E-02  0.1149111E+00
       -2   -1    0    0    0  501  0.00000000000E+00  0.00000000000E+00  0.36641230164E+03  0.36641230165E+03  0.00000000000E+00 0. -1.
       21   -1    0    0  501  503  0.00000000000E+00  0.00000000000E+00 -0.12655695258E+03  0.12655695258E+03  0.25500000920E-02 0. -1.
       25    2    1    2    0    0 -0.16740751478E+02 -0.11984072609E+03  0.22144345560E+03  0.28160987632E+03  0.12499946408E+03 0.  0.
       -6    2    1    2    0  503  0.16740751478E+02  0.11984072609E+03  0.18411893459E+02  0.21135937791E+03  0.17231290265E+03 0.  0.
      -24    2    4    4    0    0 -0.16290627485E+02  0.14218361785E+02 -0.33735602260E+02  0.88931410737E+02  0.79392434149E+02 0.  0.
       11    1    5    5    0    0 -0.58558729620E+01  0.42769345644E+02  0.46936200653E+00  0.43170921647E+02  0.51099999109E-03 0. -1.
      -12    1    5    5    0    0 -0.10434754523E+02 -0.28550983859E+02 -0.34204964266E+02  0.45760489090E+02  0.00000000000E+00 0.  1.
       -5    1    4    4    0  503  0.33031378963E+02  0.10562236431E+03  0.52147495719E+02  0.12242796717E+03  0.46999998093E+01 0.  1.
        5    1    3    3  502    0  0.40549053220E+02 -0.98661414206E+02  0.10348522127E+03  0.14869290968E+03  0.46999998093E+01 0. -1.
       -5    1    3    3    0  502 -0.57289804698E+02 -0.21179311885E+02  0.11795823434E+03  0.13291696664E+03  0.46999998093E+01 0. -1.
</event>
<event>
10   0  0.1583500E-03  0.1558969E+03  0.7818609E-02  0.1202558E+00
       21   -1    0    0  501  503  0.00000000000E+00  0.00000000000E+00  0.42019453910E+02  0.42019453910E+02  0.00000000000E+00 0.  1.
        2   -1    0    0  503    0  0.00000000000E+00  0.00000000000E+00 -0.54942710768E+03  0.54942710768E+03  0.25500000920E-02 0.  1.
       25    2    1    2    0    0  0.12176981782E+02  0.23167863880E+02 -0.33749489703E+03  0.36085128214E+03  0.12500325395E+03 0.  0.
        6    2    1    2  501    0 -0.12176981782E+02 -0.23167863880E+02 -0.16991275674E+03  0.23059527945E+03  0.15368412150E+03 0.  0.
       24    2    4    4    0    0  0.25927590070E+02 -0.74173200307E+01 -0.34063752333E+02  0.88549230498E+02  0.77158087298E+02 0.  0.
      -11    1    5    5    0    0  0.18237146094E+02 -0.40461067298E+02 -0.65372248996E+01  0.44860079962E+02  0.51099999109E-03 0.  1.
       12    1    5    5    0    0  0.76904439757E+01  0.33043747267E+02 -0.27526527433E+02  0.43689150536E+02  0.00000000000E+00 0. -1.
        5    1    4    4  501    0 -0.38104571852E+02 -0.15750543849E+02 -0.13584900440E+03  0.14204604895E+03  0.46999998093E+01 0. -1.
        5    1    3    3  502    0 -0.28958337761E+02 -0.41005824174E+02 -0.11349962010E+03  0.12419467260E+03  0.46999998093E+01 0. -1.
       -5    1    3    3    0  502  0.41135319543E+02  0.64173688054E+02 -0.22399527693E+03  0.23665660954E+03  0.46999998093E+01 0. -1.
</event>
<event>
10   0  0.1583500E-03  0.1967541E+03  0.7818609E-02  0.1160835E+00
        2   -1    0    0  503    0  0.00000000000E+00  0.00000000000E+00  0.13065869168E+04  0.13065869168E+04  0.00000000000E+00 0. -1.
       21   -1    0    0  501  503  0.00000000000E+00  0.00000000000E+00 -0.31350883477E+02  0.31350883477E+02  0.25500000920E-02 0. -1.
       25    2    1    2    0    0 -0.42769548718E+01 -0.10279642166E+03  0.89797423582E+03  0.91245144612E+03  0.12499806671E+03 0.  0.
        6    2    1    2  501    0  0.42769548718E+01  0.10279642166E+03  0.37726179750E+03  0.42548635416E+03  0.16771039643E+03 0.  0.
       24    2    4    4    0    0  0.28125380180E+02  0.13084495429E+03  0.33170289803E+03  0.36672266731E+03  0.80915159831E+02 0.  0.
      -13    1    5    5    0    0  0.55086439311E+02  0.66983698081E+02  0.17212268529E+03  0.19273702695E+03  0.10565999895E+00 0.  1.
       14    1    5    5    0    0 -0.26961059132E+02  0.63861256204E+02  0.15958021274E+03  0.17398564036E+03  0.00000000000E+00 0. -1.
        5    1    4    4  501    0 -0.23848425308E+02 -0.28048532622E+02  0.45558899472E+02  0.58763686842E+02  0.46999998093E+01 0. -1.
        5    1    3    3  502    0 -0.20948019856E+02  0.16990734802E+02  0.62201351236E+02  0.67960302374E+02  0.46999998093E+01 0.  1.
       -5    1    3    3    0  502  0.16671064984E+02 -0.11978715646E+03  0.83577288458E+03  0.84449114375E+03  0.46999998093E+01 0.  1.
</event>
<event>
10   0  0.1583500E-03  0.1962574E+03  0.7818609E-02  0.1162750E+00
       21   -1    0    0  501  503  0.00000000000E+00  0.00000000000E+00  0.35382072802E+02  0.35382072802E+02  0.00000000000E+00 0.  1.
        2   -1    0    0  503    0  0.00000000000E+00  0.00000000000E+00 -0.21055596715E+04  0.21055596715E+04  0.25500000920E-02 0.  1.
       25    2    1    2    0    0 -0.73212390591E+02 -0.57980660434E+02 -0.18013619904E+04  0.18081072772E+04  0.12500037674E+03 0.  0.
        6    2    1    2  501    0  0.73212390591E+02  0.57980660434E+02 -0.26881560825E+03  0.33283446708E+03  0.17261268817E+03 0.  0.
       24    2    4    4    0    0  0.10967505983E+03  0.24452806964E+02 -0.16216715899E+03  0.21515003764E+03  0.85818370539E+02 0.  0.
      -11    1    5    5    0    0  0.75218532983E+02  0.50857409757E+02 -0.74986272462E+02  0.11775926668E+03  0.51099999109E-03 0.  1.
       12    1    5    5    0    0  0.34456526849E+02 -0.26404602793E+02 -0.87180886529E+02  0.97390770955E+02  0.00000000000E+00 0. -1.
        5    1    4    4  501    0 -0.36462669241E+02  0.33527853471E+02 -0.10664844926E+03  0.11768442944E+03  0.46999998093E+01 0. -1.
        5    1    3    3  502    0  0.50585371249E+01 -0.36200710490E+02 -0.12713386036E+04  0.12718726411E+04  0.46999998093E+01 0.  1.
       -5    1    3    3    0  502 -0.78270927716E+02 -0.21779949945E+02 -0.53002338681E+03  0.53623463606E+03  0.46999998093E+01 0.  1.
</event>
<event>
10   0  0.1583500E-03  0.2285708E+03  0.7818609E-02  0.1133849E+00
       21   -1    0    0  501  503  0.00000000000E+00  0.00000000000E+00  0.16389346905E+03  0.16389346905E+03  0.00000000000E+00 0.  1.
        2   -1    0    0  503    0  0.00000000000E+00  0.00000000000E+00 -0.14629739091E+04  0.14629739091E+04  0.25500000920E-02 0. -1.
       25    2    1    2    0    0  0.13656178659E+03  0.65361672038E+02 -0.13727491666E+04  0.13867180992E+04  0.12500216922E+03 0.  0.
        6    2    1    2  501    0 -0.13656178659E+03 -0.65361672038E+02  0.73668726600E+02  0.24014927897E+03  0.17124054772E+03 0.  0.
       24    2    4    4    0    0 -0.12603016349E+03 -0.33080355205E+02 -0.61515038883E+01  0.15327950463E+03  0.80491325796E+02 0.  0.
      -15    1    5    5    0    0 -0.94635350113E+02 -0.14298690017E+02  0.31505966193E+02  0.10077740650E+03  0.17769999504E+01 0.  1.
       16    1    5    5    0    0 -0.31394813378E+02 -0.18781665188E+02 -0.37657470082E+02  0.52502098122E+02  0.00000000000E+00 0. -1.
        5    1    4    4  501    0 -0.10531623101E+02 -0.32281316833E+02  0.79820230488E+02  0.86869774347E+02  0.46999998093E+01 0. -1.
        5    1    3    3  502    0  0.10147827947E+03  0.82845760700E+02 -0.12683091965E+04  0.12750653195E+04  0.46999998093E+01 0. -1.
       -5    1    3    3    0  502  0.35083507124E+02 -0.17484088662E+02 -0.10443997018E+03  0.11165277962E+03  0.46999998093E+01 0. -1.
</event>
<event>
10   0  0.1583500E-03  0.1997335E+03  0.7818609E-02  0.1159067E+00
        2   -1    0    0  503    0  0.00000000000E+00  0.00000000000E+00  0.12201096881E+04  0.12201096881E+04  0.00000000000E+00 0. -1.
       21   -1    0    0  501  503  0.00000000000E+00  0.00000000000E+00 -0.31370516571E+02  0.31370516571E+02  0.25500000920E-02 0. -1.
       25    2    1    2    0    0 -0.98188643630E+02  0.27159609561E+02  0.78068528210E+03  0.79716593436E+03  0.12500145229E+03 0.  0.
        6    2    1    2  501    0  0.98188643630E+02 -0.27159609561E+02  0.40805388946E+03  0.45431427035E+03  0.17179879340E+03 0.  0.
       24    2    4    4    0    0  0.77104135891E+02 -0.59087246262E+02  0.39349990318E+03  0.41310942881E+03  0.79880385113E+02 0.  0.
      -15    1    5    5    0    0  0.43665109994E+02 -0.76151577044E+02  0.25955652889E+03  0.27400447795E+03  0.17769999504E+01 0.  1.
       16    1    5    5    0    0  0.33439025897E+02  0.17064330782E+02  0.13394337429E+03  0.13910495086E+03  0.00000000000E+00 0. -1.
        5    1    4    4  501    0  0.21084507739E+02  0.31927636701E+02  0.14553986282E+02  0.41204841546E+02  0.46999998093E+01 0. -1.
        5    1    3    3  502    0 -0.48775108730E+02  0.63180700589E+02  0.23899546549E+03  0.25201534612E+03  0.46999998093E+01 0. -1.
       -5    1    3    3    0  502 -0.49413534900E+02 -0.36021091027E+02  0.54168981661E+03  0.54515058823E+03  0.46999998093E+01 0. -1.
</event>
<event>
10   0  0.1583500E-03  0.1841065E+03  0.7818609E-02  0.1175048E+00
       21   -1    0    0  501  503  0.00000000000E+00  0.00000000000E+00  0.49895606157E+02  0.49895606157E+02  0.00000000000E+00 0. -1.
        2   -1    0    0  503    0  0.00000000000E+00  0.00000000000E+00 -0.83280441056E+03  0.83280441056E+03  0.25500000920E-02 0.  1.
       25    2    1    2    0    0 -0.18011586464E+02  0.66191859515E+02 -0.62216403560E+03  0.63829441410E+03  0.12500356944E+03 0.  0.
        6    2    1    2  501    0  0.18011586464E+02 -0.66191859515E+02 -0.16074476880E+03  0.24440560261E+03  0.17084916850E+03 0.  0.
       24    2    4    4    0    0  0.60799540285E+02 -0.85395765800E+02 -0.13997464890E+03  0.19289747813E+03  0.81409543786E+02 0.  0.
      -13    1    5    5    0    0  0.85150534851E+01 -0.23483920702E+02 -0.98978546971E+02  0.10208214629E+03  0.10565999895E+00 0.  1.
       14    1    5    5    0    0  0.52284486800E+02 -0.61911845098E+02 -0.40996101927E+02  0.90815331836E+02  0.00000000000E+00 0. -1.
        5    1    4    4  501    0 -0.42787953821E+02  0.19203906285E+02 -0.20770119904E+02  0.51508124484E+02  0.46999998093E+01 0. -1.
        5    1    3    3  502    0  0.14690604482E+02  0.42541172135E+02 -0.57178371111E+03  0.57357150162E+03  0.46999998093E+01 0. -1.
       -5    1    3    3    0  502 -0.32702190946E+02  0.23650687380E+02 -0.50380324489E+02  0.64722912481E+02  0.46999998093E+01 0. -1.
</event>
<event>
10   0  0.1583500E-03  0.2292861E+03  0.7818609E-02  0.1133544E+00
       21   -1    0    0  501  503  0.00000000000E+00  0.00000000000E+00  0.27977417263E+03  0.27977417263E+03  0.00000000000E+00 0. -1.
        2   -1    0    0  503    0  0.00000000000E+00  0.00000000000E+00 -0.40207703234E+03  0.40207703235E+03  0.25500000920E-02 0.  1.
       25    2    1    2    0    0  0.15088340328E+03 -0.26540923023E+01 -0.32256702483E+03  0.37742079902E+03  0.12499651369E+03 0.  0.
        6    2    1    2  501    0 -0.15088340328E+03  0.26540923023E+01  0.20026416512E+03  0.30443040595E+03  0.17262471042E+03 0.  0.
       24    2    4    4    0    0 -0.77121242521E+01 -0.20408219737E+02  0.90455904560E+02  0.12246934017E+03  0.79627233529E+02 0.  0.
      -13    1    5    5    0    0  0.34008890321E+02 -0.18440798362E+02  0.29845515924E+02  0.48861371757E+02  0.10565999895E+00 0.  1.
       14    1    5    5    0    0 -0.41721014574E+02 -0.19674213748E+01  0.60610388636E+02  0.73607968417E+02  0.00000000000E+00 0. -1.
        5    1    4    4  501    0 -0.14317127903E+03  0.23062312039E+02  0.10980826056E+03  0.18196106578E+03  0.46999998093E+01 0. -1.
        5    1    3    3  502    0  0.30932777835E+01  0.41220688077E+02 -0.73842439835E+02  0.84755586317E+02  0.46999998093E+01 0. -1.
       -5    1    3    3    0  502  0.14779012550E+03 -0.43874780379E+02 -0.24872458500E+03  0.29266521271E+03  0.46999998093E+01 0. -1.
</event>
<event>
10   0  0.1583500E-03  0.1788309E+03  0.7818609E-02  0.1181773E+00
       21   -1    0    0  501  503  0.00000000000E+00  0.00000000000E+00  0.18725959471E+02  0.18725959471E+02  0.00000000000E+00 0. -1.
        2   -1    0    0  503    0  0.00000000000E+00  0.00000000000E+00 -0.14788248393E+04  0.14788248394E+04  0.25500000920E-02 0.  1.
       25    2    1    2    0    0  0.35421058237E+02 -0.31544494792E+02 -0.89214174070E+03  0.90210491438E+03  0.12500673792E+03 0.  0.
        6    2    1    2  501    0 -0.35421058237E+02  0.31544494792E+02 -0.56795713918E+03  0.59544588445E+03  0.17242616635E+03 0.  0.
       24    2    4    4    0    0  0.91663175130E+01 -0.41611252271E+02 -0.29331733984E+03  0.30771526949E+03  0.82692850556E+02 0.  0.
      -15    1    5    5    0    0 -0.23426466058E+02 -0.45728926920E+02 -0.23703868865E+03  0.24254985408E+03  0.17769999504E+01 0.  1.
       16    1    5    5    0    0  0.32592783571E+02  0.41176746485E+01 -0.56278651191E+02  0.65165415408E+02  0.00000000000E+00 0. -1.
        5    1    4    4  501    0 -0.44587375749E+02  0.73155747063E+02 -0.27463979933E+03  0.28773061495E+03  0.46999998093E+01 0. -1.
        5    1    3    3  502    0 -0.30613787033E+02 -0.50736076238E+02 -0.54148285505E+03  0.54473583111E+03  0.46999998093E+01 0.  1.
       -5    1    3    3    0  502  0.66034845270E+02  0.19191581446E+02 -0.35065888565E+03  0.35736908326E+03  0.46999998093E+01 0.  1.
</event>
<event>
10   0  0.1583500E-03  0.1791537E+03  0.7818609E-02  0.1181400E+00
        2   -1    0    0  503    0  0.00000000000E+00  0.00000000000E+00  0.49198909925E+03  0.49198909925E+03  0.00000000000E+00 0. -1.
       21   -1    0    0  501  503  0.00000000000E+00  0.00000000000E+00 -0.52848524941E+02  0.52848524941E+02  0.25500000920E-02 0. -1.
       25    2    1    2    0    0  0.36975509627E+02  0.31465205841E+02  0.25389735148E+03  0.28713414438E+03  0.12499961716E+03 0.  0.
        6    2    1    2  501    0 -0.36975509627E+02 -0.31465205841E+02  0.18524322283E+03  0.25770347982E+03  0.17244936769E+03 0.  0.
       24    2    4    4    0    0 -0.52891068003E+02 -0.63393617054E+02  0.18875596742E+03  0.22154884230E+03  0.81479190791E+02 0.  0.
      -13    1    5    5    0    0 -0.45975574495E+02  0.57059098328E+01  0.82331998519E+02  0.94471583036E+02  0.10565999895E+00 0.  1.
       14    1    5    5    0    0 -0.69154935085E+01 -0.69099526887E+02  0.10642396890E+03  0.12707725927E+03  0.00000000000E+00 0. -1.
        5    1    4    4  501    0  0.15915558377E+02  0.31928411214E+02 -0.35127445894E+01  0.36154637515E+02  0.46999998093E+01 0. -1.
        5    1    3    3  502    0 -0.17618532907E+02  0.32476876933E+02  0.12037676716E+02  0.39142763010E+02  0.46999998093E+01 0.  1.
       -5    1    3    3    0  502  0.54594042533E+02 -0.10116710927E+01  0.24185967476E+03  0.24799138137E+03  0.46999998093E+01 0.  1.
</event>
<event>
10   0  0.1583500E-03  0.1959276E+03  0.7818609E-02  0.1162395E+00
       21   -1    0    0  501  503  0.00000000000E+00  0.00000000000E+00  0.12872581847E+03  0.12872581847E+03  0.00000000000E+00 0.  1.
        4   -1    0    0  503    0  0.00000000000E+00  0.00000000000E+00 -0.66960788494E+03  0.66960908930E+03  0.12699999809E+01 0. -1.
       25    2    1    2    0    0 -0.96519201218E+02 -0.78334173132E+01 -0.57772577018E+03  0.59897322272E+03  0.12499814949E+03 0.  0.
        6    2    1    2  501    0  0.96519201218E+02  0.78334173132E+01  0.36843703714E+02  0.19936168505E+03  0.17032411554E+03 0.  0.
       24    2    4    4    0    0  0.11827968718E+03  0.42881922070E+02  0.37859859991E+02  0.15782809616E+03  0.87449387070E+02 0.  0.
      -13    1    5    5    0    0 -0.11947537661E+02 -0.44582824977E+01 -0.34962681133E+01  0.13223274698E+02  0.10565999895E+00 0.  1.
       14    1    5    5    0    0  0.13022722484E+03  0.47340204567E+02  0.41356128104E+02  0.14460482146E+03  0.00000000000E+00 0. -1.
        5    1    4    4  501    0 -0.21760485958E+02 -0.35048504756E+02 -0.10161562771E+01  0.41533588896E+02  0.46999998093E+01 0. -1.
        5    1    3    3  502    0  0.16773041215E+02  0.33040921678E+02 -0.15105517528E+03  0.15560460595E+03  0.46999998093E+01 0. -1.
       -5    1    3    3    0  502 -0.11329224243E+03 -0.40874338991E+02 -0.42667059490E+03  0.44336861677E+03  0.46999998093E+01 0. -1.
</event>
<event>
10   0  0.1583500E-03  0.1893209E+03  0.7818609E-02  0.1169737E+00
        2   -1    0    0  503    0  0.00000000000E+00  0.00000000000E+00  0.29221877361E+04  0.29221877361E+04  0.00000000000E+00 0. -1.
       21   -1    0    0  501  503  0.00000000000E+00  0.00000000000E+00 -0.26319459843E+02  0.26319459843E+02  0.25500000920E-02 0. -1.
       25    2    1    2    0    0  0.71318025272E+02  0.34498574408E+02  0.25493627485E+04  0.25536547284E+04  0.12500254327E+03 0.  0.
        6    2    1    2  501    0 -0.71318025272E+02 -0.34498574408E+02  0.34650552771E+03  0.39485246755E+03  0.17194760257E+03 0.  0.
       24    2    4    4    0    0 -0.11130313768E+03 -0.50754376904E+02  0.27305195971E+03  0.30952617043E+03  0.79275987844E+02 0.  0.
      -15    1    5    5    0    0 -0.70235767521E+02 -0.61244826971E+02  0.23405290528E+03  0.25192838679E+03  0.17769999504E+01 0.  1.
       16    1    5    5    0    0 -0.41067370161E+02  0.10490450067E+02  0.38999054430E+02  0.57597783646E+02  0.00000000000E+00 0. -1.
        5    1    4    4  501    0  0.39985112409E+02  0.16255802497E+02  0.73453568003E+02  0.85326297117E+02  0.46999998093E+01 0. -1.
        5    1    3    3  502    0  0.91197229151E+02  0.61744879726E+02  0.21578499351E+04  0.21606637400E+04  0.46999998093E+01 0.  1.
       -5    1    3    3    0  502 -0.19879203878E+02 -0.27246305319E+02  0.39151281345E+03  0.39299098843E+03  0.46999998093E+01 0.  1.
</event>
<event>
10   0  0.1583500E-03  0.3692737E+03  0.7818609E-02  0.1057007E+00
        2   -1    0    0  503    0  0.00000000000E+00  0.00000000000E+00  0.94143597992E+03  0.94143597993E+03  0.00000000000E+00 0.  1.
       21   -1    0    0  501  503  0.00000000000E+00  0.00000000000E+00 -0.15664852101E+03  0.15664852101E+03  0.25500000920E-02 0. -1.
       25    2    1    2    0    0 -0.15276083255E+03  0.28741160009E+03  0.57754988081E+03  0.67463380237E+03  0.12500241055E+03 0.  0.
        6    2    1    2  501    0  0.15276083255E+03 -0.28741160009E+03  0.20723757811E+03  0.42345069857E+03  0.17441840645E+03 0.  0.
       24    2    4    4    0    0  0.16690920220E+03 -0.26887648591E+03  0.22232234553E+03  0.39528392687E+03  0.81663401011E+02 0.  0.
      -13    1    5    5    0    0 -0.24926172134E+01 -0.20452350633E+02 -0.11697006491E+01  0.20637130387E+02  0.10565999895E+00 0.  1.
       14    1    5    5    0    0  0.16940181941E+03 -0.24842413528E+03  0.22349204618E+03  0.37464679648E+03  0.00000000000E+00 0. -1.
        5    1    4    4  501    0 -0.14148369655E+02 -0.18535114179E+02 -0.15084767420E+02  0.28166771697E+02  0.46999998093E+01 0. -1.
        5    1    3    3  502    0 -0.72730621370E+02  0.12799709366E+03  0.14483906842E+03  0.20657551890E+03  0.46999998093E+01 0.  1.
       -5    1    3    3    0  502 -0.80030211175E+02  0.15941450643E+03  0.43271081239E+03  0.46805828347E+03  0.46999998093E+01 0.  1.
</event>
<event>
10   0  0.1583500E-03  0.1950092E+03  0.7818609E-02  0.1163892E+00
       21   -1    0    0  501  503  0.00000000000E+00  0.00000000000E+00  0.29529361763E+03  0.29529361763E+03  0.00000000000E+00 0. -1.
       -4   -1    0    0    0  501  0.00000000000E+00  0.00000000000E+00 -0.12691705087E+03  0.12692340486E+03  0.12699999809E+01 0. -1.
       25    2    1    2    0    0 -0.71111379025E+02 -0.57520878600E+02 -0.13588485817E+02  0.15549641952E+03  0.12501603831E+03 0.  0.
       -6    2    1    2    0  503  0.71111379025E+02  0.57520878600E+02  0.18196505258E+03  0.26672060297E+03  0.17222984639E+03 0.  0.
      -24    2    4    4    0    0 -0.11883871651E+02 -0.12580731837E+02  0.61085235968E+02  0.10412765269E+03  0.82532786102E+02 0.  0.
       11    1    5    5    0    0  0.24985986039E+02  0.14012623892E+02  0.49537227456E+02  0.57224033683E+02  0.51099999109E-03 0. -1.
      -12    1    5    5    0    0 -0.36869857689E+02 -0.26593355729E+02  0.11548008512E+02  0.46903619003E+02  0.00000000000E+00 0.  1.
       -5    1    4    4    0  503  0.82995250676E+02  0.70101610437E+02  0.12087981661E+03  0.16259295029E+03  0.46999998093E+01 0.  1.
        5    1    3    3  502    0 -0.28441939978E+02 -0.85630246685E+02 -0.38793102818E+02  0.98328418687E+02  0.46999998093E+01 0.  1.
       -5    1    3    3    0  502 -0.42669439047E+02  0.28109368084E+02  0.25204617002E+02  0.57168000832E+02  0.46999998093E+01 0.  1.
</event>
<event>
10   0  0.1583500E-03  0.2083357E+03  0.7818609E-02  0.1151027E+00
        2   -1    0    0  503    0  0.00000000000E+00  0.00000000000E+00  0.19525189790E+03  0.19525189792E+03  0.00000000000E+00 0.  1.
       21   -1    0    0  501  503  0.00000000000E+00  0.00000000000E+00 -0.18590888746E+03  0.18590888746E+03  0.25500000920E-02 0.  1.
       25    2    1    2    0    0  0.57740728697E+02  0.10245575110E+03 -0.10067650862E+02  0.17192276089E+03  0.12499962173E+03 0.  0.
        6    2    1    2  501    0 -0.57740728697E+02 -0.10245575110E+03  0.19410661301E+02  0.20923802450E+03  0.17196687018E+03 0.  0.
       24    2    4    4    0    0  0.14958223217E+02 -0.83317399643E+02 -0.25729386338E+02  0.12142499582E+03  0.83165442123E+02 0.  0.
      -11    1    5    5    0    0 -0.23091869020E+02 -0.76296487237E+02 -0.13526506475E+02  0.80853909968E+02  0.51099999109E-03 0.  1.
       12    1    5    5    0    0  0.38050092237E+02 -0.70209124062E+01 -0.12202879863E+02  0.40571085852E+02  0.00000000000E+00 0. -1.
        5    1    4    4  501    0 -0.72698951914E+02 -0.19138351460E+02  0.45140047640E+02  0.87813028676E+02  0.46999998093E+01 0. -1.
        5    1    3    3  502    0  0.16123224101E+02  0.12162326749E+03 -0.21057669660E+02  0.12457003251E+03  0.46999998093E+01 0.  1.
       -5    1    3    3    0  502  0.41617504596E+02 -0.19167516386E+02  0.10990018798E+02  0.47352728375E+02  0.46999998093E+01 0.  1.
</event>
<event>
10   0  0.1583500E-03  0.2469937E+03  0.7818609E-02  0.1120287E+00
        4   -1    0    0  503    0  0.00000000000E+00  0.00000000000E+00  0.68742707756E+03  0.68742825070E+03  0.00000000000E+00 0. -1.
       21   -1    0    0  501  503  0.00000000000E+00  0.00000000000E+00 -0.15931513413E+03  0.15931513413E+03  0.12699999809E+01 0.  1.
       25    2    1    2    0    0 -0.12168538178E+03 -0.12986673754E+03  0.55710895445E+03  0.59805336222E+03  0.12499894113E+03 0.  0.
        6    2    1    2  501    0  0.12168538178E+03  0.12986673754E+03 -0.28997011012E+02  0.24869002260E+03  0.17126937565E+03 0.  0.
       24    2    4    4    0    0  0.10537591772E+03  0.22132421418E+02 -0.41460858963E+02  0.13891698861E+03  0.77362773891E+02 0.  0.
      -15    1    5    5    0    0  0.84693868562E+02  0.27589567865E+02  0.34645376887E+01  0.89159387488E+02  0.17769999504E+01 0.  1.
       16    1    5    5    0    0  0.20682049160E+02 -0.54571464476E+01 -0.44925396652E+02  0.49757601119E+02  0.00000000000E+00 0. -1.
        5    1    4    4  501    0  0.16309464058E+02  0.10773431612E+03  0.12463847951E+02  0.10977303400E+03  0.46999998093E+01 0. -1.
        5    1    3    3  502    0 -0.92050080163E+02 -0.96055451228E+01  0.26498087734E+03  0.28071772140E+03  0.46999998093E+01 0.  1.
       -5    1    3    3    0  502 -0.29635301618E+02 -0.12026119242E+03  0.29212807711E+03  0.31733564082E+03  0.46999998093E+01 0.  1.
</event>
<event>
10   0  0.1583500E-03  0.4042825E+03  0.7818609E-02  0.1043837E+00
        2   -1    0    0  503    0  0.00000000000E+00  0.00000000000E+00  0.14423657367E+04  0.14423657367E+04  0.00000000000E+00 0.  1.
       21   -1    0    0  501  503  0.00000000000E+00  0.00000000000E+00 -0.11194146075E+03  0.11194146075E+03  0.25500000920E-02 0. -1.
       25    2    1    2    0    0 -0.25520983784E+03  0.26237900419E+03  0.51401970748E+03  0.64328535438E+03  0.12499993721E+03 0.  0.
        6    2    1    2  501    0  0.25520983784E+03 -0.26237900419E+03  0.81640456847E+03  0.91102184307E+03  0.17166704972E+03 0.  0.
       24    2    4    4    0    0  0.27220454080E+03 -0.25327835631E+03  0.79792034584E+03  0.88390361664E+03  0.79771469764E+02 0.  0.
      -11    1    5    5    0    0  0.17664300476E+03 -0.17469255928E+03  0.61279705415E+03  0.66124161316E+03  0.51099999109E-03 0.  1.
       12    1    5    5    0    0  0.95561536044E+02 -0.78585797038E+02  0.18512329169E+03  0.22266200348E+03  0.00000000000E+00 0. -1.
        5    1    4    4  501    0 -0.16994702959E+02 -0.91006478777E+01  0.18484222630E+02  0.27118226433E+02  0.46999998093E+01 0. -1.
        5    1    3    3  502    0 -0.17776835306E+03  0.13324687862E+03  0.38689572744E+03  0.44616892756E+03  0.46999998093E+01 0. -1.
       -5    1    3    3    0  502 -0.77441484787E+02  0.12913212557E+03  0.12712398004E+03  0.19711642681E+03  0.46999998093E+01 0. -1.
</event>
<event>
10   0  0.1583500E-03  0.1888582E+03  0.7818609E-02  0.1170651E+00
       21   -1    0    0  501  503  0.00000000000E+00  0.00000000000E+00  0.15642825269E+03  0.15642825269E+03  0.00000000000E+00 0. -1.
        2   -1    0    0  503    0  0.00000000000E+00  0.00000000000E+00 -0.28662104244E+03  0.28662104245E+03  0.25500000920E-02 0. -1.
       25    2    1    2    0    0  0.69137394554E+02  0.30214030660E+02 -0.19480510113E+03  0.24344421954E+03  0.12499277429E+03 0.  0.
        6    2    1    2  501    0 -0.69137394554E+02 -0.30214030660E+02  0.64612311386E+02  0.19960507560E+03  0.17313165063E+03 0.  0.
       24    2    4    4    0    0 -0.59758086986E+02  0.44518454153E+02  0.56212721087E+02  0.12367379870E+03  0.81132094466E+02 0.  0.
      -13    1    5    5    0    0 -0.26672725064E+02  0.42703542551E+02  0.71283930824E+02  0.87272199277E+02  0.10565999895E+00 0.  1.
       14    1    5    5    0    0 -0.33085361922E+02  0.18149116024E+01 -0.15071209738E+02  0.36401599423E+02  0.00000000000E+00 0. -1.
        5    1    4    4  501    0 -0.93793075681E+01 -0.74732484813E+02  0.83995902987E+01  0.75931276903E+02  0.46999998093E+01 0. -1.
        5    1    3    3  502    0  0.82588255443E+02 -0.71122312883E+01 -0.58924392792E+02  0.10181148184E+03  0.46999998093E+01 0.  1.
       -5    1    3    3    0  502 -0.13450860889E+02  0.37326261948E+02 -0.13588070834E+03  0.14163273769E+03  0.46999998093E+01 0.  1.
</event>
<event>
10   0  0.1583500E-03  0.2221895E+03  0.7818609E-02  0.1139124E+00
       -2   -1    0    0    0  501  0.00000000000E+00  0.00000000000E+00  0.17332234857E+03  0.17332234859E+03  0.00000000000E+00 0. -1.
       21   -1    0    0  501  503  0.00000000000E+00  0.00000000000E+00 -0.25492286285E+03  0.25492286285E+03  0.25500000920E-02 0.  1.
       25    2    1    2    0    0  0.12058356223E+03  0.72105356967E+02  0.90675753708E+01  0.18826839372E+03  0.12499275646E+03 0.  0.
       -6    2    1    2    0  503 -0.12058356223E+03 -0.72105356967E+02 -0.90668089647E+02  0.23997681772E+03  0.17212958078E+03 0.  0.
      -24    2    4    4    0    0 -0.19206820987E+02 -0.15618534387E+02  0.13257042126E+02  0.84122630088E+02  0.79297081524E+02 0.  0.
       11    1    5    5    0    0 -0.28192187593E+02 -0.40390913962E+02  0.25040721569E+02  0.55256339989E+02  0.51099999109E-03 0. -1.
      -12    1    5    5    0    0  0.89853666061E+01  0.24772379576E+02 -0.11783679443E+02  0.28866290100E+02  0.00000000000E+00 0.  1.
       -5    1    4    4    0  503 -0.10137674124E+03 -0.56486822580E+02 -0.10392513177E+03  0.15585418763E+03  0.46999998093E+01 0.  1.
        5    1    3    3  502    0  0.14253748680E+03  0.52847169542E+02  0.25830276160E+02  0.15426941251E+03  0.46999998093E+01 0. -1.
       -5    1    3    3    0  502 -0.21953924574E+02  0.19258187425E+02 -0.16762700789E+02  0.33998981206E+02  0.46999998093E+01 0. -1.
</event>
<event>
10   0  0.1583500E-03  0.1843923E+03  0.7818609E-02  0.1174369E+00
       21   -1    0    0  501  503  0.00000000000E+00  0.00000000000E+00  0.83508996355E+02  0.83508996355E+02  0.00000000000E+00 0.  1.
        2   -1    0    0  503    0  0.00000000000E+00  0.00000000000E+00 -0.94626612180E+03  0.94626612181E+03  0.25500000920E-02 0.  1.
       25    2    1    2    0    0  0.54951314872E+02 -0.46138481465E+02 -0.83009185333E+03  0.84251184771E+03  0.12500128839E+03 0.  0.
        6    2    1    2  501    0 -0.54951314872E+02  0.46138481465E+02 -0.32665272124E+02  0.18726327045E+03  0.16985907682E+03 0.  0.
       24    2    4    4    0    0  0.60441515880E+01  0.57883153210E+02 -0.64111876398E+02  0.11748244814E+03  0.79402781642E+02 0.  0.
      -11    1    5    5    0    0 -0.13853049054E+01 -0.15206962465E+02 -0.35492844212E+02  0.38638229354E+02  0.51099999109E-03 0.  1.
       12    1    5    5    0    0  0.74294564934E+01  0.73090115676E+02 -0.28619032187E+02  0.78844218790E+02  0.00000000000E+00 0. -1.
        5    1    4    4  501    0 -0.60995466460E+02 -0.11744671746E+02  0.31446604275E+02  0.69780822306E+02  0.46999998093E+01 0. -1.
        5    1    3    3  502    0  0.83402271467E+02 -0.13879385302E+02 -0.70666414010E+03  0.71171965909E+03  0.46999998093E+01 0. -1.
       -5    1    3    3    0  502 -0.28450956595E+02 -0.32259096163E+02 -0.12342771322E+03  0.13079218863E+03  0.46999998093E+01 0. -1.
</event>
<event>
10   0  0.1583500E-03  0.2493647E+03  0.7818609E-02  0.1118483E+00
       21   -1    0    0  501  503  0.00000000000E+00  0.00000000000E+00  0.44870110704E+02  0.44870110704E+02  0.00000000000E+00 0.  1.
        2   -1    0    0  503    0  0.00000000000E+00  0.00000000000E+00 -0.12762718749E+04  0.12762718749E+04  0.25500000920E-02 0.  1.
       25    2    1    2    0    0 -0.19490966022E+00  0.18237308935E+03 -0.45883294367E+03  0.50932592711E+03  0.12500099247E+03 0.  0.
        6    2    1    2  501    0  0.19490966022E+00 -0.18237308935E+03 -0.77256882049E+03  0.81181605846E+03  0.17006689472E+03 0.  0.
       24    2    4    4    0    0  0.40214383866E+02 -0.12754676745E+03 -0.35016908022E+03  0.38397132674E+03  0.83247945668E+02 0.  0.
      -11    1    5    5    0    0 -0.12688120375E+02 -0.54374395725E+02 -0.69585589959E+02  0.89217249673E+02  0.51099999109E-03 0.  1.
       12    1    5    5    0    0  0.52902504240E+02 -0.73172371723E+02 -0.28058349026E+03  0.29475407706E+03  0.00000000000E+00 0. -1.
        5    1    4    4  501    0 -0.40019474205E+02 -0.54826321899E+02 -0.42239974027E+03  0.42784473172E+03  0.46999998093E+01 0. -1.
        5    1    3    3  502    0 -0.54033143086E+02  0.11304750855E+03 -0.20080454763E+03  0.23673587833E+03  0.46999998093E+01 0.  1.
       -5    1    3    3    0  502  0.53838233425E+02  0.69325580796E+02 -0.25802839604E+03  0.27259004877E+03  0.46999998093E+01 0.  1.
</event>
<event>
10   0  0.1583500E-03  0.2351807E+03  0.7818609E-02  0.1128943E+00
        2   -1    0    0  503    0  0.00000000000E+00  0.00000000000E+00  0.27848810286E+04  0.27848810286E+04  0.00000000000E+00 0. -1.
       21   -1    0    0  501  503  0.00000000000E+00  0.00000000000E+00 -0.45475954697E+02  0.45475954697E+02  0.25500000920E-02 0. -1.
       25    2    1    2    0    0 -0.24650252647E+02 -0.15837877927E+03  0.24455345058E+04  0.24539664161E+04  0.12498271637E+03 0.  0.
        6    2    1    2  501    0  0.24650252647E+02  0.15837877927E+03  0.29387056809E+03  0.37639056723E+03  0.17210019068E+03 0.  0.
       24    2    4    4    0    0 -0.75449558020E+01  0.13933783601E+03  0.29833976665E+03  0.33842805018E+03  0.77813686961E+02 0.  0.
      -15    1    5    5    0    0 -0.42653498576E+02  0.83794996915E+02  0.17825212752E+03  0.20153883284E+03  0.17769999504E+01 0.  1.
       16    1    5    5    0    0  0.35108542774E+02  0.55542839097E+02  0.12008763913E+03  0.13688921734E+03  0.00000000000E+00 0. -1.
        5    1    4    4  501    0  0.32195208449E+02  0.19040943256E+02 -0.44691985599E+01  0.37962517055E+02  0.46999998093E+01 0. -1.
        5    1    3    3  502    0 -0.44493877043E+02 -0.14237384729E+01  0.58748324070E+03  0.58918620166E+03  0.46999998093E+01 0.  1.
       -5    1    3    3    0  502  0.19843624396E+02 -0.15695504080E+03  0.18580512651E+04  0.18647802144E+04  0.46999998093E+01 0.  1.
</event>
<event>
10   0  0.1583500E-03  0.1878476E+03  0.7818609E-02  0.1171713E+00
       21   -1    0    0  501  503  0.00000000000E+00  0.00000000000E+00  0.12659206314E+02  0.12659206314E+02  0.00000000000E+00 0.  1.
        2   -1    0    0  503    0  0.00000000000E+00  0.00000000000E+00 -0.21972179456E+04  0.21972179456E+04  0.25500000920E-02 0.  1.
       25    2    1    2    0    0 -0.80631039122E+01 -0.72738578643E+02 -0.10318382237E+04  0.10419510768E+04  0.12496404319E+03 0.  0.
        6    2    1    2  501    0  0.80631039122E+01  0.72738578643E+02 -0.11527205156E+04  0.11679260751E+04  0.17300524678E+03 0.  0.
       24    2    4    4    0    0 -0.56177125168E+02  0.16510052175E+02 -0.54151125636E+03  0.55076539686E+03  0.81729005865E+02 0.  0.
      -15    1    5    5    0    0 -0.57749959727E+02  0.43413160492E+02 -0.43090816687E+03  0.43692649994E+03  0.17769999504E+01 0.  1.
       16    1    5    5    0    0  0.15728345591E+01 -0.26903108317E+02 -0.11060308949E+03  0.11383889692E+03  0.00000000000E+00 0. -1.
        5    1    4    4  501    0  0.64240229080E+02  0.56228526468E+02 -0.61120925924E+03  0.61716067827E+03  0.46999998093E+01 0. -1.
        5    1    3    3  502    0  0.56735493391E+02 -0.45751808773E+02 -0.59841626818E+03  0.60285675267E+03  0.46999998093E+01 0.  1.
       -5    1    3    3    0  502 -0.64798597303E+02 -0.26986769870E+02 -0.43342195550E+03  0.43909432411E+03  0.46999998093E+01 0.  1.
</event>
<event>
10   0  0.1583500E-03  0.2242873E+03  0.7818609E-02  0.1137528E+00
       21   -1    0    0  501  503  0.00000000000E+00  0.00000000000E+00  0.10335538789E+03  0.10335538789E+03  0.00000000000E+00 0. -1.
        2   -1    0    0  503    0  0.00000000000E+00  0.00000000000E+00 -0.88653864109E+03  0.88653864109E+03  0.25500000920E-02 0.  1.
       25    2    1    2    0    0 -0.18102821642E+02 -0.14197448879E+03 -0.73673724521E+03  0.76084808717E+03  0.12499430249E+03 0.  0.
        6    2    1    2  501    0  0.18102821642E+02  0.14197448879E+03 -0.46446007991E+02  0.22904594181E+03  0.17268568031E+03 0.  0.
       24    2    4    4    0    0  0.65651932258E+02  0.12947164597E+03 -0.67443352348E+01  0.16567755998E+03  0.79564341902E+02 0.  0.
      -15    1    5    5    0    0 -0.10578268243E+01 -0.10366837505E+02  0.38580574541E+00  0.10578132743E+02  0.17769999504E+01 0.  1.
       16    1    5    5    0    0  0.66709759082E+02  0.13983848348E+03 -0.71301409802E+01  0.15509942723E+03  0.00000000000E+00 0. -1.
        5    1    4    4  501    0 -0.47549110615E+02  0.12502842815E+02 -0.39701672756E+02  0.63368381837E+02  0.46999998093E+01 0. -1.
        5    1    3    3  502    0  0.58668045667E+01 -0.14423391986E+03 -0.71008892171E+03  0.72462832526E+03  0.46999998093E+01 0.  1.
       -5    1    3    3    0  502 -0.23969626209E+02  0.22594310746E+01 -0.26648323497E+02  0.36219761910E+02  0.46999998093E+01 0.  1.
</event>
<event>
10   0  0.1583500E-03  0.2199327E+03  0.7818609E-02  0.1141076E+00
        2   -1    0    0  503    0  0.00000000000E+00  0.00000000000E+00  0.17402423393E+04  0.17402423393E+04  0.00000000000E+00 0. -1.
       21   -1    0    0  501  503  0.00000000000E+00  0.00000000000E+00 -0.31408174114E+02  0.31408174114E+02  0.25500000920E-02 0. -1.
       25    2    1    2    0    0 -0.13487609982E+03 -0.20077352295E+02  0.12408528561E+04  0.12545655310E+04  0.12499679459E+03 0.  0.
        6    2    1    2  501    0  0.13487609982E+03  0.20077352295E+02  0.46798130907E+03  0.51708498242E+03  0.17255639955E+03 0.  0.
       24    2    4    4    0    0  0.34945274252E+02  0.35182351767E+02  0.34522877881E+03  0.35801077146E+03  0.80807380222E+02 0.  0.
      -15    1    5    5    0    0 -0.18615380228E+02  0.80994126777E+01  0.25230002763E+02  0.32432138921E+02  0.17769999504E+01 0.  1.
       16    1    5    5    0    0  0.53560654480E+02  0.27082939089E+02  0.31999877604E+03  0.32557863254E+03  0.00000000000E+00 0. -1.
        5    1    4    4  501    0  0.99930825565E+02 -0.15104999471E+02  0.12275253027E+03  0.15907421096E+03  0.46999998093E+01 0. -1.
        5    1    3    3  502    0 -0.13513838550E+03  0.12300985847E+02  0.72030990041E+03  0.73299532067E+03  0.46999998093E+01 0.  1.
       -5    1    3    3    0  502  0.26228568150E+00 -0.32378338142E+02  0.52054295567E+03  0.52157021030E+03  0.46999998093E+01 0.  1.
</event>
<event>
10   0  0.1583500E-03  0.1842937E+03  0.7818609E-02  0.1174986E+00
       21   -1    0    0  501  503  0.00000000000E+00  0.00000000000E+00  0.15180593035E+02  0.15180593035E+02  0.00000000000E+00 0.  1.
        2   -1    0    0  503    0  0.00000000000E+00  0.00000000000E+00 -0.17625184104E+04  0.17625184104E+04  0.25500000920E-02 0.  1.
       25    2    1    2    0    0  0.15511857791E+02 -0.66331206779E+02 -0.71340882741E+03  0.72747362992E+03  0.12500112186E+03 0.  0.
        6    2    1    2  501    0 -0.15511857791E+02  0.66331206779E+02 -0.10339289900E+04  0.10502253735E+04  0.17124173616E+03 0.  0.
       24    2    4    4    0    0 -0.72592722725E+02  0.67969971869E+02 -0.65406334331E+03  0.66606276447E+03  0.77143558965E+02 0.  0.
      -11    1    5    5    0    0 -0.41126495818E+02  0.44462371261E+02 -0.17107305821E+03  0.18147804925E+03  0.51099999109E-03 0.  1.
       12    1    5    5    0    0 -0.31466226907E+02  0.23507600608E+02 -0.48299028510E+03  0.48458471522E+03  0.00000000000E+00 0. -1.
        5    1    4    4  501    0  0.57080864935E+02 -0.16387650900E+01 -0.37986564667E+03  0.38416260907E+03  0.46999998093E+01 0. -1.
        5    1    3    3  502    0 -0.35911939262E+02 -0.76243670159E+02 -0.33701013080E+03  0.34742003811E+03  0.46999998093E+01 0.  1.
       -5    1    3    3    0  502  0.51423797052E+02  0.99124633796E+01 -0.37639869662E+03  0.38005359181E+03  0.46999998093E+01 0.  1.
</event>
<event>
10   0  0.1583500E-03  0.1761318E+03  0.7818609E-02  0.1184475E+00
        2   -1    0    0  503    0  0.00000000000E+00  0.00000000000E+00  0.23728144625E+03  0.23728144626E+03  0.00000000000E+00 0.  1.
       21   -1    0    0  501  503  0.00000000000E+00  0.00000000000E+00 -0.10737349413E+03  0.10737349413E+03  0.25500000920E-02 0.  1.
       25    2    1    2    0    0  0.30997784870E+02 -0.27702158269E+02  0.10136958993E+03  0.16622608119E+03  0.12500817600E+03 0.  0.
        6    2    1    2  501    0 -0.30997784870E+02  0.27702158269E+02  0.28538362189E+02  0.17842885921E+03  0.17115533133E+03 0.  0.
       24    2    4    4    0    0 -0.67235799700E+02  0.41452503810E+02 -0.22709431776E+02  0.11400299402E+03  0.79006338480E+02 0.  0.
      -11    1    5    5    0    0 -0.44536043397E+02  0.28634733754E+02  0.25825824297E+02  0.58909934133E+02  0.51099999109E-03 0.  1.
       12    1    5    5    0    0 -0.22699756303E+02  0.12817770055E+02 -0.48535256073E+02  0.55093059885E+02  0.00000000000E+00 0. -1.
        5    1    4    4  501    0  0.36238014830E+02 -0.13750345540E+02  0.51247793965E+02  0.64425865192E+02  0.46999998093E+01 0. -1.
        5    1    3    3  502    0  0.38380474529E+02 -0.73325024034E+02  0.49308826993E+02  0.96452425539E+02  0.46999998093E+01 0.  1.
       -5    1    3    3    0  502 -0.73826896596E+01  0.45622865765E+02  0.52060762933E+02  0.69773655649E+02  0.46999998093E+01 0.  1.
</event>
<event>
10   0  0.1583500E-03  0.2081509E+03  0.7818609E-02  0.1151172E+00
       21   -1    0    0  501  503  0.00000000000E+00  0.00000000000E+00  0.11459760800E+03  0.11459760800E+03  0.00000000000E+00 0. -1.
        2   -1    0    0  503    0  0.00000000000E+00  0.00000000000E+00 -0.41770786916E+03  0.41770786917E+03  0.25500000920E-02 0. -1.
       25    2    1    2    0    0  0.11390195224E+03  0.28504392083E+02 -0.27241702682E+03  0.32190379439E+03  0.12499944499E+03 0.  0.
        6    2    1    2  501    0 -0.11390195224E+03 -0.28504392083E+02 -0.30693234346E+02  0.21040168278E+03  0.17187390258E+03 0.  0.
       24    2    4    4    0    0 -0.16193319111E+02 -0.63212110416E+02 -0.88038238814E+01  0.10432228332E+03  0.80917470275E+02 0.  0.
      -15    1    5    5    0    0 -0.26670355820E+02  0.44581510907E+01 -0.21607940612E+02  0.34658964454E+02  0.17769999504E+01 0.  1.
       16    1    5    5    0    0  0.10477036709E+02 -0.67670261506E+02  0.12804116731E+02  0.69663318869E+02  0.00000000000E+00 0. -1.
        5    1    4    4  501    0 -0.97708633132E+02  0.34707718333E+02 -0.21889410465E+02  0.10607939946E+03  0.46999998093E+01 0. -1.
        5    1    3    3  502    0  0.23091539689E+02  0.67803595740E+02 -0.10076418906E+03  0.12371765676E+03  0.46999998093E+01 0. -1.
       -5    1    3    3    0  502  0.90810412555E+02 -0.39299203657E+02 -0.17165283776E+03  0.19818613762E+03  0.46999998093E+01 0. -1.
</event>
<event>
10   0  0.1583500E-03  0.2645792E+03  0.7818609E-02  0.1108617E+00
        2   -1    0    0  503    0  0.00000000000E+00  0.00000000000E+00  0.55061594240E+03  0.55061594240E+03  0.00000000000E+00 0.  1.
       21   -1    0    0  501  503  0.00000000000E+00  0.00000000000E+00 -0.11955578473E+03  0.11955578473E+03  0.25500000920E-02 0. -1.
       25    2    1    2    0    0  0.88231037200E+02 -0.18179004063E+03  0.27322252793E+03  0.36208917391E+03  0.12500274116E+03 0.  0.
        6    2    1    2  501    0 -0.88231037200E+02  0.18179004063E+03  0.15783762973E+03  0.30808255322E+03  0.17079170776E+03 0.  0.
       24    2    4    4    0    0 -0.43674136475E+02  0.19865874396E+03  0.13502892674E+03  0.25505239685E+03  0.73798288145E+02 0.  0.
      -13    1    5    5    0    0 -0.24972882261E+02  0.41812303205E+02  0.67571635017E+02  0.83293760695E+02  0.10565999895E+00 0.  1.
       14    1    5    5    0    0 -0.18701254214E+02  0.15684644076E+03  0.67457291720E+02  0.17175863615E+03  0.00000000000E+00 0. -1.
        5    1    4    4  501    0 -0.44556900725E+02 -0.16868703327E+02  0.22808702997E+02  0.53030156372E+02  0.46999998093E+01 0. -1.
        5    1    3    3  502    0  0.47669970059E+02 -0.18431316457E+03  0.18822294068E+03  0.26775685626E+03  0.46999998093E+01 0.  1.
       -5    1    3    3    0  502  0.40561067141E+02  0.25231239367E+01  0.84999587254E+02  0.94332317652E+02  0.46999998093E+01 0.  1.
</event>
<event>
10   0  0.1583500E-03  0.1942571E+03  0.7818609E-02  0.1164517E+00
       21   -1    0    0  501  503  0.00000000000E+00  0.00000000000E+00  0.30434839382E+02  0.30434839382E+02  0.00000000000E+00 0.  1.
        2   -1    0    0  503    0  0.00000000000E+00  0.00000000000E+00 -0.12076928882E+04  0.12076928882E+04  0.25500000920E-02 0. -1.
       25    2    1    2    0    0  0.78846202806E+02  0.44903499322E+02 -0.78908200843E+03  0.80405806457E+03  0.12500362880E+03 0.  0.
        6    2    1    2  501    0 -0.78846202806E+02 -0.44903499322E+02 -0.38817604041E+03  0.43406966304E+03  0.17176375077E+03 0.  0.
       24    2    4    4    0    0 -0.74189053525E+02 -0.20672994606E+02 -0.12167785670E+03  0.16639041783E+03  0.83359954210E+02 0.  0.
      -13    1    5    5    0    0 -0.39662120654E+02  0.19470992247E+02 -0.99717033176E+02  0.10906741596E+03  0.10565999895E+00 0.  1.
       14    1    5    5    0    0 -0.34526932872E+02 -0.40143986854E+02 -0.21960823521E+02  0.57323001873E+02  0.00000000000E+00 0. -1.
        5    1    4    4  501    0 -0.46571492811E+01 -0.24230504715E+02 -0.26649818371E+03  0.26767924521E+03  0.46999998093E+01 0. -1.
        5    1    3    3  502    0  0.87658617373E+02  0.43257225923E+02 -0.78779972332E+03  0.79385497092E+03  0.46999998093E+01 0.  1.
       -5    1    3    3    0  502 -0.88124145663E+01  0.16462733990E+01 -0.12822851112E+01  0.10203093644E+02  0.46999998093E+01 0.  1.
</event>
<event>
10   0  0.1583500E-03  0.2464604E+03  0.7818609E-02  0.1120875E+00
        2   -1    0    0  503    0  0.00000000000E+00  0.00000000000E+00  0.53040295514E+03  0.53040295515E+03  0.00000000000E+00 0. -1.
       21   -1    0    0  501  503  0.00000000000E+00  0.00000000000E+00 -0.27713857306E+03  0.27713857306E+03  0.25500000920E-02 0. -1.
       25    2    1    2    0    0 -0.36696126464E+02  0.17191650890E+03  0.44550267871E+03  0.49497429177E+03  0.12500008419E+03 0.  0.
        6    2    1    2  501    0  0.36696126464E+02 -0.17191650890E+03 -0.19223829662E+03  0.31256723644E+03  0.17274496484E+03 0.  0.
       24    2    4    4    0    0 -0.88579451703E+01 -0.42526185223E+02 -0.19978337883E+02  0.92311447214E+02  0.78964103743E+02 0.  0.
      -11    1    5    5    0    0 -0.26483150853E+02 -0.59660075844E+02 -0.11307204328E+02  0.66246017230E+02  0.51099999109E-03 0.  1.
       12    1    5    5    0    0  0.17625205683E+02  0.17133890621E+02 -0.86711335552E+01  0.26065429985E+02  0.00000000000E+00 0. -1.
        5    1    4    4  501    0  0.45554071634E+02 -0.12939032368E+03 -0.17225995874E+03  0.22025578922E+03  0.46999998093E+01 0. -1.
        5    1    3    3  502    0  0.22289464661E+02  0.29776416126E+02  0.20040585717E+02  0.42510825284E+02  0.46999998093E+01 0.  1.
       -5    1    3    3    0  502 -0.58985591125E+02  0.14214009277E+03  0.42546209299E+03  0.45246346649E+03  0.46999998093E+01 0.  1.
</event>
<event>
10   0  0.1583500E-03  0.2140503E+03  0.7818609E-02  0.1146838E+00
       21   -1    0    0  501  503  0.00000000000E+00  0.00000000000E+00  0.77014755086E+02  0.77014755086E+02  0.00000000000E+00 0. -1.
       -4   -1    0    0    0  501  0.00000000000E+00  0.00000000000E+00 -0.55323534615E+03  0.55323680385E+03  0.12699999809E+01 0. -1.
       25    2    1    2    0    0 -0.10998356252E+03 -0.53195605566E+02 -0.32216867896E+03  0.36652909312E+03  0.12499904770E+03 0.  0.
       -6    2    1    2    0  503  0.10998356252E+03  0.53195605566E+02 -0.15405191211E+03  0.26372246581E+03  0.17575946880E+03 0.  0.
      -24    2    4    4    0    0  0.62712735069E+02 -0.24451571657E+02 -0.35996802544E+02  0.11464961734E+03  0.85545300670E+02 0.  0.
       13    1    5    5    0    0  0.68620027696E+02  0.73554932744E+01 -0.39703425800E+01  0.69127319249E+02  0.10565999895E+00 0. -1.
      -14    1    5    5    0    0 -0.59072926273E+01 -0.31807064932E+02 -0.32026459964E+02  0.45522298092E+02  0.00000000000E+00 0.  1.
       -5    1    4    4    0  503  0.47270827456E+02  0.77647177224E+02 -0.11805510956E+03  0.14907284847E+03  0.46999998093E+01 0.  1.
        5    1    3    3  502    0 -0.33243276093E+02 -0.39663107585E+02 -0.22095532594E+02  0.56467513382E+02  0.46999998093E+01 0.  1.
       -5    1    3    3    0  502 -0.76740286432E+02 -0.13532497981E+02 -0.30007314637E+03  0.31006157974E+03  0.46999998093E+01 0.  1.
</event>
<event>
10   0  0.1583500E-03  0.1913185E+03  0.7818609E-02  0.1166521E+00
       21   -1    0    0  501  503  0.00000000000E+00  0.00000000000E+00  0.10746946928E+02  0.10746946928E+02  0.00000000000E+00 0.  1.
        2   -1    0    0  503    0  0.00000000000E+00  0.00000000000E+00 -0.29332973023E+04  0.29332973023E+04  0.25500000920E-02 0.  1.
       25    2    1    2    0    0  0.13020362563E+02 -0.89670602594E+02 -0.16478263619E+04  0.16550430754E+04  0.12500206164E+03 0.  0.
        6    2    1    2  501    0 -0.13020362563E+02  0.89670602594E+02 -0.12747239934E+04  0.12890011739E+04  0.16850050436E+03 0.  0.
       24    2    4    4    0    0  0.22821724324E+02  0.66693506318E+01 -0.33258741275E+03  0.34252492499E+03  0.78381284628E+02 0.  0.
      -15    1    5    5    0    0  0.20709544780E+00  0.39563139964E+02 -0.12463197331E+03  0.13077297669E+03  0.17769999504E+01 0.  1.
       16    1    5    5    0    0  0.22614628876E+02 -0.32893789332E+02 -0.20795543944E+03  0.21175194830E+03  0.00000000000E+00 0. -1.
        5    1    4    4  501    0 -0.35842086887E+02  0.83001251962E+02 -0.94213658069E+03  0.94647624888E+03  0.46999998093E+01 0. -1.
        5    1    3    3  502    0 -0.52790625237E+02 -0.15861366456E+02 -0.56757889732E+03  0.57026864523E+03  0.46999998093E+01 0. -1.
       -5    1    3    3    0  502  0.65810987800E+02 -0.73809236138E+02 -0.10802474646E+04  0.10847744301E+04  0.46999998093E+01 0. -1.
</event>
<event>
10   0  0.1583500E-03  0.2993455E+03  0.7818609E-02  0.1088536E+00
        2   -1    0    0  503    0  0.00000000000E+00  0.00000000000E+00  0.16631905565E+04  0.16631905565E+04  0.00000000000E+00 0.  1.
       21   -1    0    0  501  503  0.00000000000E+00  0.00000000000E+00 -0.68375680206E+02  0.68375680206E+02  0.25500000920E-02 0. -1.
       25    2    1    2    0    0 -0.23883179038E+03 -0.62175163610E+02  0.12246641428E+04  0.12555207346E+04  0.12499470943E+03 0.  0.
        6    2    1    2  501    0  0.23883179038E+03  0.62175163610E+02  0.37015073350E+03  0.47604550207E+03  0.16941481479E+03 0.  0.
       24    2    4    4    0    0  0.12178247746E+03  0.15927068962E+02  0.98639351288E+02  0.17674640655E+03  0.80155643989E+02 0.  0.
      -15    1    5    5    0    0  0.38649149929E+02 -0.55217653862E+01  0.79787890733E+02  0.88845438373E+02  0.17769999504E+01 0. -1.
       16    1    5    5    0    0  0.83133327531E+02  0.21448834348E+02  0.18851460555E+02  0.87900968176E+02  0.00000000000E+00 0. -1.
        5    1    4    4  501    0  0.11704931292E+03  0.46248094648E+02  0.27151138221E+03  0.29929909552E+03  0.46999998093E+01 0. -1.
        5    1    3    3  502    0 -0.24923054101E+03 -0.44630812539E+02  0.10764707012E+04  0.11058566962E+04  0.46999998093E+01 0. -1.
       -5    1    3    3    0  502  0.10398750632E+02 -0.17544351071E+02  0.14819344161E+03  0.14966403844E+03  0.46999998093E+01 0. -1.
</event>
<event>
10   0  0.1583500E-03  0.2086113E+03  0.7818609E-02  0.1150690E+00
        2   -1    0    0  503    0  0.00000000000E+00  0.00000000000E+00  0.15268793089E+04  0.15268793089E+04  0.00000000000E+00 0. -1.
       21   -1    0    0  501  503  0.00000000000E+00  0.00000000000E+00 -0.24736969286E+02  0.24736969286E+02  0.25500000920E-02 0.  1.
       25    2    1    2    0    0 -0.13428621414E+02  0.11783735771E+03  0.52873351102E+03  0.55610463967E+03  0.12500909502E+03 0.  0.
        6    2    1    2  501    0  0.13428621414E+02 -0.11783735771E+03  0.97340882856E+03  0.99551163849E+03  0.17161790144E+03 0.  0.
       24    2    4    4    0    0 -0.27764693977E+02 -0.21367359229E+02  0.25333545707E+03  0.26782276254E+03  0.79515634035E+02 0.  0.
      -13    1    5    5    0    0 -0.31239088442E+02 -0.30754089932E+02  0.60419439972E+02  0.74647267765E+02  0.10565999895E+00 0.  1.
       14    1    5    5    0    0  0.34743944652E+01  0.93867307035E+01  0.19291601710E+03  0.19317549478E+03  0.00000000000E+00 0. -1.
        5    1    4    4  501    0  0.41193315391E+02 -0.96469998486E+02  0.72007337149E+03  0.72768887594E+03  0.46999998093E+01 0. -1.
        5    1    3    3  502    0  0.24731567832E+02  0.10394118962E+03  0.21936079093E+03  0.24404234867E+03  0.46999998093E+01 0.  1.
       -5    1    3    3    0  502 -0.38160189246E+02  0.13896168094E+02  0.30937272009E+03  0.31206229100E+03  0.46999998093E+01 0.  1.
</event>
<event>
10   0  0.1583500E-03  0.2473642E+03  0.7818609E-02  0.1120190E+00
        2   -1    0    0  503    0  0.00000000000E+00  0.00000000000E+00  0.11230580863E+04  0.11230580863E+04  0.00000000000E+00 0.  1.
       21   -1    0    0  501  503  0.00000000000E+00  0.00000000000E+00 -0.51211640879E+02  0.51211640879E+02  0.25500000920E-02 0.  1.
       25    2    1    2    0    0 -0.59965249621E+02  0.16697651434E+03  0.64966421920E+03  0.68495708830E+03  0.12500251042E+03 0.  0.
        6    2    1    2  501    0  0.59965249621E+02 -0.16697651434E+03  0.42218222619E+03  0.48931263884E+03  0.17237180430E+03 0.  0.
       24    2    4    4    0    0  0.17424221012E+02 -0.11504879383E+02  0.18470094391E+03  0.20225756082E+03  0.79735290169E+02 0.  0.
      -15    1    5    5    0    0  0.46104706551E+02  0.15821952607E+01  0.74575737914E+02  0.87708869120E+02  0.17769999504E+01 0.  1.
       16    1    5    5    0    0 -0.28680485540E+02 -0.13087074644E+02  0.11012520600E+03  0.11454869170E+03  0.00000000000E+00 0. -1.
        5    1    4    4  501    0  0.42541028610E+02 -0.15547163495E+03  0.23748128228E+03  0.28705507802E+03  0.46999998093E+01 0. -1.
        5    1    3    3  502    0  0.27243889876E+01  0.15216296593E+03  0.46884354194E+03  0.49294761112E+03  0.46999998093E+01 0.  1.
       -5    1    3    3    0  502 -0.62689638609E+02  0.14813548409E+02  0.18082067726E+03  0.19200947718E+03  0.46999998093E+01 0.  1.
</event>
<event>
10   0  0.1583500E-03  0.3414492E+03  0.7818609E-02  0.1068569E+00
       -4   -1    0    0    0  501  0.00000000000E+00  0.00000000000E+00  0.70191947221E+03  0.70192062113E+03  0.00000000000E+00 0.  1.
       21   -1    0    0  501  503  0.00000000000E+00  0.00000000000E+00 -0.16377181837E+03  0.16377181837E+03  0.12699999809E+01 0.  1.
       25    2    1    2    0    0 -0.48637162718E+02 -0.29016969657E+03  0.35686160500E+03  0.47910196370E+03  0.12499784038E+03 0.  0.
       -6    2    1    2    0  503  0.48637162718E+02  0.29016969657E+03  0.18128604884E+03  0.38659047580E+03  0.17327301599E+03 0.  0.
      -24    2    4    4    0    0  0.14920309957E+02  0.18217938458E+03  0.18501126094E+03  0.27330013708E+03  0.83975320404E+02 0.  0.
       13    1    5    5    0    0  0.34525996086E+02  0.14854022471E+03  0.10756867105E+03  0.18662066584E+03  0.10565999895E+00 0. -1.
      -14    1    5    5    0    0 -0.19605686129E+02  0.33639159875E+02  0.77442589896E+02  0.86679471246E+02  0.00000000000E+00 0.  1.
       -5    1    4    4    0  503  0.33716852761E+02  0.10799031198E+03 -0.37252121038E+01  0.11329033871E+03  0.46999998093E+01 0.  1.
        5    1    3    3  502    0  0.35637359769E+02 -0.75223560664E+02  0.13625651374E+03  0.15973895275E+03  0.46999998093E+01 0.  1.
       -5    1    3    3    0  502 -0.84274522486E+02 -0.21494613590E+03  0.22060509126E+03  0.31936301096E+03  0.46999998093E+01 0.  1.
</event>
<event>
10   0  0.1583500E-03  0.1971755E+03  0.7818609E-02  0.1161658E+00
       21   -1    0    0  501  503  0.00000000000E+00  0.00000000000E+00  0.40580841231E+03  0.40580841231E+03  0.00000000000E+00 0.  1.
        2   -1    0    0  503    0  0.00000000000E+00  0.00000000000E+00 -0.10611489335E+03  0.10611489338E+03  0.25500000920E-02 0.  1.
       25    2    1    2    0    0 -0.89422586038E+02  0.35807880443E+02  0.56791728761E+01  0.15791397687E+03  0.12500387150E+03 0.  0.
        6    2    1    2  501    0  0.89422586038E+02 -0.35807880443E+02  0.29401434609E+03  0.35400932882E+03  0.17204524402E+03 0.  0.
       24    2    4    4    0    0 -0.13368785769E+02 -0.41595408024E+02  0.11322270558E+03  0.14590534311E+03  0.80994355896E+02 0.  0.
      -13    1    5    5    0    0  0.13444779872E+02 -0.44022714114E+02  0.10942926675E+03  0.11871620382E+03  0.10565999895E+00 0.  1.
       14    1    5    5    0    0 -0.26813565641E+02  0.24273060898E+01  0.37934388340E+01  0.27189139292E+02  0.00000000000E+00 0. -1.
        5    1    4    4  501    0  0.10279137181E+03  0.57875275805E+01  0.18079164050E+03  0.20810398571E+03  0.46999998093E+01 0. -1.
        5    1    3    3  502    0  0.31742532265E+02  0.36423464663E+01  0.30235906595E+01  0.32435892790E+02  0.46999998093E+01 0. -1.
       -5    1    3    3    0  502 -0.12116511830E+03  0.32165533977E+02  0.26555822166E+01  0.12547808408E+03  0.46999998093E+01 0. -1.
</event>
<event>
10   0  0.1583500E-03  0.1786739E+03  0.7818609E-02  0.1180633E+00
        2   -1    0    0  503    0  0.00000000000E+00  0.00000000000E+00  0.83001651803E+03  0.83001651804E+03  0.00000000000E+00 0.  1.
       21   -1    0    0  501  503  0.00000000000E+00  0.00000000000E+00 -0.33329878955E+02  0.33329878955E+02  0.25500000920E-02 0.  1.
       25    2    1    2    0    0  0.13987606233E+02 -0.55614491772E+02  0.48455508067E+03  0.50369310559E+03  0.12499797433E+03 0.  0.
        6    2    1    2  501    0 -0.13987606233E+02  0.55614491772E+02  0.31213155840E+03  0.35965329141E+03  0.16922102542E+03 0.  0.
       24    2    4    4    0    0  0.11811685642E+01  0.15122938217E+02  0.30661315470E+03  0.31581038530E+03  0.74124721973E+02 0.  0.
      -13    1    5    5    0    0  0.53032317142E+01 -0.18457085948E+02  0.22038694371E+02  0.29231891863E+02  0.10565999895E+00 0.  1.
       14    1    5    5    0    0 -0.41220631500E+01  0.33580024166E+02  0.28457446033E+03  0.28657849344E+03  0.00000000000E+00 0. -1.
        5    1    4    4  501    0 -0.15168774797E+02  0.40491553555E+02  0.55184037015E+01  0.43842906105E+02  0.46999998093E+01 0. -1.
        5    1    3    3  502    0 -0.44165027410E+02 -0.52621420812E+02  0.16418628396E+03  0.17804153845E+03  0.46999998093E+01 0. -1.
       -5    1    3    3    0  502  0.58152633643E+02 -0.29930709596E+01  0.32036879671E+03  0.32565156713E+03  0.46999998093E+01 0. -1.
</event>
<event>
10   0  0.1583500E-03  0.2189103E+03  0.7818609E-02  0.1141729E+00
        2   -1    0    0  503    0  0.00000000000E+00  0.00000000000E+00  0.36481062818E+03  0.36481062819E+03  0.00000000000E+00 0.  1.
       21   -1    0    0  501  503  0.00000000000E+00  0.00000000000E+00 -0.13991007065E+03  0.13991007065E+03  0.25500000920E-02 0.  1.
       25    2    1    2    0    0  0.95906916124E+02 -0.96316033743E+02  0.21800564017E+03  0.28570181815E+03  0.12499661927E+03 0.  0.
        6    2    1    2  501    0 -0.95906916124E+02  0.96316033743E+02  0.68949173588E+01  0.21901888070E+03  0.17160074388E+03 0.  0.
       24    2    4    4    0    0 -0.12379387239E+03  0.35440345175E+02  0.14405076151E+02  0.15147612186E+03  0.78463802903E+02 0.  0.
      -15    1    5    5    0    0 -0.67234138332E+02  0.58350367685E+02  0.12466106456E+01  0.89050022645E+02  0.17769999504E+01 0.  1.
       16    1    5    5    0    0 -0.56559734060E+02 -0.22910022510E+02  0.13158465505E+02  0.62426099212E+02  0.00000000000E+00 0. -1.
        5    1    4    4  501    0  0.27886956268E+02  0.60875688568E+02 -0.75101587921E+01  0.67542758841E+02  0.46999998093E+01 0. -1.
        5    1    3    3  502    0  0.79608301665E+02  0.64924442040E+01  0.10464191416E+03  0.13172567602E+03  0.46999998093E+01 0.  1.
       -5    1    3    3    0  502  0.16298614459E+02 -0.10280847795E+03  0.11336372601E+03  0.15397614213E+03  0.46999998093E+01 0.  1.
</event>
<event>
10   0  0.1583500E-03  0.2359440E+03  0.7818609E-02  0.1128652E+00
        2   -1    0    0  503    0  0.00000000000E+00  0.00000000000E+00  0.89588570102E+03  0.89588570102E+03  0.00000000000E+00 0.  1.
       21   -1    0    0  501  503  0.00000000000E+00  0.00000000000E+00 -0.59140804795E+02  0.59140804795E+02  0.25500000920E-02 0.  1.
       25    2    1    2    0    0  0.15222405563E+03  0.48007788889E+02  0.53406075003E+03  0.57124629455E+03  0.12499813365E+03 0.  0.
        6    2    1    2  501    0 -0.15222405563E+03 -0.48007788889E+02  0.30268414620E+03  0.38378021126E+03  0.17376031564E+03 0.  0.
       24    2    4    4    0    0 -0.11099373543E+03 -0.94790097066E+02  0.17268527629E+03  0.23952238708E+03  0.79031623162E+02 0.  0.
      -15    1    5    5    0    0 -0.30307448808E+02 -0.75872677117E+02  0.70288763695E+02  0.10779087446E+03  0.17769999504E+01 0.  1.
       16    1    5    5    0    0 -0.80686286618E+02 -0.18917419949E+02  0.10239651260E+03  0.13173151262E+03  0.00000000000E+00 0. -1.
        5    1    4    4  501    0 -0.41230320205E+02  0.46782308176E+02  0.12999886991E+03  0.14425782418E+03  0.46999998093E+01 0. -1.
        5    1    3    3  502    0 -0.18354701915E+02 -0.91834400563E+01  0.82445747369E+02  0.85091843975E+02  0.46999998093E+01 0.  1.
       -5    1    3    3    0  502  0.17057875755E+03  0.57191228946E+02  0.45161500266E+03  0.48615445058E+03  0.46999998093E+01 0.  1.
</event>
<event>
10   0  0.1583500E-03  0.2233289E+03  0.7818609E-02  0.1138365E+00
        2   -1    0    0  503    0  0.00000000000E+00  0.00000000000E+00  0.34236882911E+03  0.34236882912E+03  0.00000000000E+00 0. -1.
       21   -1    0    0  501  503  0.00000000000E+00  0.00000000000E+00 -0.13733927105E+03  0.13733927105E+03  0.25500000920E-02 0. -1.
       25    2    1    2    0    0  0.90551887886E+02 -0.10840088070E+03  0.16946755523E+03  0.25356553879E+03  0.12500333935E+03 0.  0.
        6    2    1    2  501    0 -0.90551887886E+02  0.10840088070E+03  0.35562002823E+02  0.22614256138E+03  0.17298961439E+03 0.  0.
       24    2    4    4    0    0 -0.10772576215E+03  0.54640050447E+02  0.67041305422E+02  0.16134900215E+03  0.83358196472E+02 0.  0.
      -15    1    5    5    0    0 -0.80219840344E+02  0.16634494126E+02  0.30499826409E+01  0.82002373762E+02  0.17769999504E+01 0.  1.
       16    1    5    5    0    0 -0.27505921808E+02  0.38005556321E+02  0.63991322781E+02  0.79346628391E+02  0.00000000000E+00 0. -1.
        5    1    4    4  501    0  0.17173874265E+02  0.53760830253E+02 -0.31479302599E+02  0.64793559225E+02  0.46999998093E+01 0. -1.
        5    1    3    3  502    0  0.98918992814E+02 -0.71951100491E+02  0.17692499566E+03  0.21514291085E+03  0.46999998093E+01 0. -1.
       -5    1    3    3    0  502 -0.83671049281E+01 -0.36449780209E+02 -0.74574404227E+01  0.38422627943E+02  0.46999998093E+01 0. -1.
</event>
<event>
10   0  0.1583500E-03  0.2179939E+03  0.7818609E-02  0.1142549E+00
       21   -1    0    0  501  503  0.00000000000E+00  0.00000000000E+00  0.92638403127E+02  0.92638403127E+02  0.00000000000E+00 0. -1.
        2   -1    0    0  503    0  0.00000000000E+00  0.00000000000E+00 -0.58778961236E+03  0.58778961237E+03  0.25500000920E-02 0. -1.
       25    2    1    2    0    0 -0.10259366782E+03 -0.86410382318E+02 -0.40492261022E+03  0.44449891744E+03  0.12499900993E+03 0.  0.
        6    2    1    2  501    0  0.10259366782E+03  0.86410382318E+02 -0.90228599011E+02  0.23592909806E+03  0.17184040381E+03 0.  0.
       24    2    4    4    0    0 -0.13351727029E+01  0.68994132578E+02 -0.54643254976E+01  0.10060873112E+03  0.73008800206E+02 0.  0.
      -11    1    5    5    0    0 -0.29792807218E+02  0.47605602260E+01 -0.43696704028E+00  0.30173916485E+02  0.51099999109E-03 0.  1.
       12    1    5    5    0    0  0.28457634515E+02  0.64233572352E+02 -0.50273584574E+01  0.70434814632E+02  0.00000000000E+00 0. -1.
        5    1    4    4  501    0  0.10392884052E+03  0.17416249740E+02 -0.84764273514E+02  0.13532036694E+03  0.46999998093E+01 0. -1.
        5    1    3    3  502    0 -0.27185396155E+02 -0.10205244589E+03 -0.21809516826E+03  0.24236612777E+03  0.46999998093E+01 0. -1.
       -5    1    3    3    0  502 -0.75408271660E+02  0.15642063571E+02 -0.18682744197E+03  0.20213278966E+03  0.46999998093E+01 0. -1.
</event>
<event>
10   0  0.1583500E-03  0.2826899E+03  0.7818609E-02  0.1097989E+00
       -4   -1    0    0    0  501  0.00000000000E+00  0.00000000000E+00  0.24404201192E+03  0.24404531645E+03  0.00000000000E+00 0. -1.
       21   -1    0    0  501  503  0.00000000000E+00  0.00000000000E+00 -0.12765048447E+04  0.12765048447E+04  0.12699999809E+01 0.  1.
       25    2    1    2    0    0  0.12961594079E+03  0.18228910550E+03  0.15529211230E+03  0.29961798418E+03  0.12500274480E+03 0.  0.
       -6    2    1    2    0  503 -0.12961594079E+03 -0.18228910550E+03 -0.11877549451E+04  0.12209321770E+04  0.17286978078E+03 0.  0.
      -24    2    4    4    0    0 -0.41992237424E+02 -0.12562751912E+02 -0.38479929504E+03  0.39555661735E+03  0.80457251533E+02 0.  0.
       13    1    5    5    0    0 -0.52216086671E+02  0.54835843623E+01 -0.13426912689E+03  0.14416934142E+03  0.10565999895E+00 0. -1.
      -14    1    5    5    0    0  0.10223849248E+02 -0.18046336274E+02 -0.25053016815E+03  0.25138727593E+03  0.00000000000E+00 0.  1.
       -5    1    4    4    0  503 -0.87623703369E+02 -0.16972635359E+03 -0.80295565002E+03  0.82537555960E+03  0.46999998093E+01 0.  1.
        5    1    3    3  502    0  0.22123585970E+02  0.48466431764E+02 -0.17245551894E+02  0.56195614798E+02  0.46999998093E+01 0.  1.
       -5    1    3    3    0  502  0.10749235482E+03  0.13382267373E+03  0.17253766419E+03  0.24342236938E+03  0.46999998093E+01 0.  1.
</event>
<event>
10   0  0.1583500E-03  0.3515072E+03  0.7818609E-02  0.1064275E+00
       21   -1    0    0  501  503  0.00000000000E+00  0.00000000000E+00  0.35982645921E+02  0.35982645921E+02  0.00000000000E+00 0. -1.
        2   -1    0    0  503    0  0.00000000000E+00  0.00000000000E+00 -0.34885346690E+04  0.34885346690E+04  0.25500000920E-02 0.  1.
       25    2    1    2    0    0 -0.26587908908E+03  0.15014248468E+03 -0.21586890558E+04  0.21837568365E+04  0.12498410136E+03 0.  0.
        6    2    1    2  501    0  0.26587908908E+03 -0.15014248468E+03 -0.12938629672E+04  0.13407604784E+04  0.17413450748E+03 0.  0.
       24    2    4    4    0    0  0.18480842839E+03 -0.10256887506E+03 -0.61453241211E+03  0.65494141078E+03  0.81385727811E+02 0.  0.
      -13    1    5    5    0    0  0.39312890186E+02 -0.61249271605E+02 -0.15680295331E+03  0.17287033851E+03  0.10565999895E+00 0.  1.
       14    1    5    5    0    0  0.14549553820E+03 -0.41319603455E+02 -0.45772945881E+03  0.48207107228E+03  0.00000000000E+00 0. -1.
        5    1    4    4  501    0  0.81070660689E+02 -0.47573609617E+02 -0.67933055511E+03  0.68581906758E+03  0.46999998093E+01 0. -1.
        5    1    3    3  502    0 -0.62613825254E+02 -0.96137171276E+01 -0.64719063047E+03  0.65030048196E+03  0.46999998093E+01 0.  1.
       -5    1    3    3    0  502 -0.20326526382E+03  0.15975620181E+03 -0.15114984254E+04  0.15334563546E+04  0.46999998093E+01 0.  1.
</event>
<event>
10   0  0.1583500E-03  0.5246288E+03  0.7818609E-02  0.1008314E+00
       21   -1    0    0  501  503  0.00000000000E+00  0.00000000000E+00  0.53749465938E+03  0.53749465938E+03  0.00000000000E+00 0.  1.
        2   -1    0    0  503    0  0.00000000000E+00  0.00000000000E+00 -0.12987809336E+04  0.12987809336E+04  0.25500000920E-02 0. -1.
       25    2    1    2    0    0 -0.89750499754E+02  0.48857734348E+03 -0.10988858372E+04  0.12124095294E+04  0.12499524436E+03 0.  0.
        6    2    1    2  501    0  0.89750499754E+02 -0.48857734348E+03  0.33759956290E+03  0.62386606361E+03  0.16873774825E+03 0.  0.
       24    2    4    4    0    0  0.35518985011E+02 -0.40683094688E+03  0.21974267400E+03  0.47045202641E+03  0.79153324293E+02 0.  0.
      -15    1    5    5    0    0 -0.18537391507E+02 -0.15135733566E+03  0.57238894612E+02  0.16288685253E+03  0.17769999504E+01 0.  1.
       16    1    5    5    0    0  0.54056376517E+02 -0.25547361122E+03  0.16250377938E+03  0.30756517388E+03  0.00000000000E+00 0. -1.
        5    1    4    4  501    0  0.54231514744E+02 -0.81746396609E+02  0.11785688891E+03  0.15341403720E+03  0.46999998093E+01 0. -1.
        5    1    3    3  502    0 -0.67261838096E+02  0.25188004308E+03 -0.71240803709E+03  0.75862705744E+03  0.46999998093E+01 0.  1.
       -5    1    3    3    0  502 -0.22488661658E+02  0.23669730041E+03 -0.38647780007E+03  0.45378247197E+03  0.46999998093E+01 0.  1.
</event>
<event>
10   0  0.1583500E-03  0.3555822E+03  0.7818609E-02  0.1062779E+00
       21   -1    0    0  501  503  0.00000000000E+00  0.00000000000E+00  0.44371876778E+03  0.44371876778E+03  0.00000000000E+00 0.  1.
        2   -1    0    0  503    0  0.00000000000E+00  0.00000000000E+00 -0.30098424799E+03  0.30098424800E+03  0.25500000920E-02 0. -1.
       25    2    1    2    0    0  0.30692091472E+03  0.23769013829E+02 -0.56629360252E+02  0.33704551528E+03  0.12500952370E+03 0.  0.
        6    2    1    2  501    0 -0.30692091472E+03 -0.23769013829E+02  0.19936388004E+03  0.40765750051E+03  0.17796984897E+03 0.  0.
       24    2    4    4    0    0 -0.10171073430E+03 -0.20573925347E+02  0.14350318962E+03  0.19490427851E+03  0.81401182253E+02 0.  0.
      -15    1    5    5    0    0 -0.11345862471E+03 -0.27906833889E+02  0.13542905543E+03  0.17887380379E+03  0.17769999504E+01 0.  1.
       16    1    5    5    0    0  0.11747890408E+02  0.73329085416E+01  0.80741341950E+01  0.16030474719E+02  0.00000000000E+00 0. -1.
        5    1    4    4  501    0 -0.20521018042E+03 -0.31950884820E+01  0.55860690420E+02  0.21275322200E+03  0.46999998093E+01 0. -1.
        5    1    3    3  502    0  0.11096246154E+02  0.25477182841E+02  0.15980968744E+02  0.32398995114E+02  0.46999998093E+01 0. -1.
       -5    1    3    3    0  502  0.29582466857E+03 -0.17081690120E+01 -0.72610328995E+02  0.30464652017E+03  0.46999998093E+01 0. -1.
</event>
<event>
10   0  0.1583500E-03  0.3351058E+03  0.7818609E-02  0.1071263E+00
        2   -1    0    0  503    0  0.00000000000E+00  0.00000000000E+00  0.26804369047E+04  0.26804369047E+04  0.00000000000E+00 0. -1.
       21   -1    0    0  501  503  0.00000000000E+00  0.00000000000E+00 -0.65018172181E+02  0.65018172181E+02  0.25500000920E-02 0.  1.
       25    2    1    2    0    0  0.21438919615E+03  0.19247339845E+03  0.21450748794E+04  0.21679438342E+04  0.12500197469E+03 0.  0.
        6    2    1    2  501    0 -0.21438919615E+03 -0.19247339845E+03  0.47034385317E+03  0.57751124269E+03  0.17113491368E+03 0.  0.
       24    2    4    4    0    0 -0.26995918527E+02 -0.77699393694E+02  0.15278775110E+03  0.19130756504E+03  0.80551301415E+02 0.  0.
      -11    1    5    5    0    0 -0.49439984101E+02 -0.49718494570E+02  0.13297773824E+03  0.15033070078E+03  0.51099999109E-03 0.  1.
       12    1    5    5    0    0  0.22444065574E+02 -0.27980899124E+02  0.19810012862E+02  0.40976864263E+02  0.00000000000E+00 0. -1.
        5    1    4    4  501    0 -0.18739327762E+03 -0.11477400475E+03  0.31755610207E+03  0.38620367764E+03  0.46999998093E+01 0. -1.
        5    1    3    3  502    0  0.19604241649E+03  0.18156586053E+03  0.15796763687E+04  0.16021230635E+04  0.46999998093E+01 0. -1.
       -5    1    3    3    0  502  0.18346779663E+02  0.10907537920E+02  0.56539851071E+03  0.56582077075E+03  0.46999998093E+01 0. -1.
</event>
<event>
10   0  0.1583500E-03  0.1829080E+03  0.7818609E-02  0.1176571E+00
        2   -1    0    0  503    0  0.00000000000E+00  0.00000000000E+00  0.77423862926E+03  0.77423862926E+03  0.00000000000E+00 0. -1.
       21   -1    0    0  501  503  0.00000000000E+00  0.00000000000E+00 -0.44038694764E+02  0.44038694764E+02  0.25500000920E-02 0. -1.
       25    2    1    2    0    0  0.61406428005E+01  0.63819542563E+02  0.52463707975E+03  0.54312026713E+03  0.12499967045E+03 0.  0.
        6    2    1    2  501    0 -0.61406428005E+01 -0.63819542563E+02  0.20556285475E+03  0.27515705690E+03  0.17130288148E+03 0.  0.
       24    2    4    4    0    0 -0.69133926824E+02 -0.58870794424E+01  0.94858251627E+02  0.13515018826E+03  0.66733259645E+02 0.  0.
      -11    1    5    5    0    0 -0.76281028734E+02 -0.61576017741E+01  0.53980639532E+02  0.93651592880E+02  0.51099999109E-03 0.  1.
       12    1    5    5    0    0  0.71471019102E+01  0.27052233170E+00  0.40877612095E+02  0.41498595382E+02  0.00000000000E+00 0. -1.
        5    1    4    4  501    0  0.62993284024E+02 -0.57932463120E+02  0.11070460312E+03  0.14000686864E+03  0.46999998093E+01 0. -1.
        5    1    3    3  502    0 -0.54218427663E+02  0.32687852662E+02  0.15910273286E+03  0.17130062233E+03  0.46999998093E+01 0.  1.
       -5    1    3    3    0  502  0.60359070464E+02  0.31131689901E+02  0.36553434689E+03  0.37181964480E+03  0.46999998093E+01 0.  1.
</event>
<event>
10   0  0.1583500E-03  0.2181092E+03  0.7818609E-02  0.1142422E+00
       21   -1    0    0  501  503  0.00000000000E+00  0.00000000000E+00  0.16139862981E+03  0.16139862981E+03  0.00000000000E+00 0. -1.
        2   -1    0    0  503    0  0.00000000000E+00  0.00000000000E+00 -0.45188378618E+03  0.45188378618E+03  0.25500000920E-02 0.  1.
       25    2    1    2    0    0  0.27875693301E+02 -0.13158626684E+03 -0.34289477304E+03  0.38896482053E+03  0.12499922533E+03 0.  0.
        6    2    1    2  501    0 -0.27875693301E+02  0.13158626684E+03  0.52409616668E+02  0.22431759546E+03  0.17169628947E+03 0.  0.
       24    2    4    4    0    0  0.37145966446E+02  0.74965080589E+02 -0.12554421552E+02  0.11626116933E+03  0.79746221621E+02 0.  0.
      -13    1    5    5    0    0 -0.22186662623E+02  0.28777206213E+02 -0.18612402663E+02  0.40826563567E+02  0.10565999895E+00 0.  1.
       14    1    5    5    0    0  0.59332629069E+02  0.46187874376E+02  0.60579811118E+01  0.75434605764E+02  0.00000000000E+00 0. -1.
        5    1    4    4  501    0 -0.65021659748E+02  0.56621186248E+02  0.64964038220E+02  0.10805642613E+03  0.46999998093E+01 0. -1.
        5    1    3    3  502    0  0.28829613898E+02 -0.68986962092E+02 -0.51565762088E+02  0.90947596967E+02  0.46999998093E+01 0.  1.
       -5    1    3    3    0  502 -0.95392059702E+00 -0.62599304745E+02 -0.29132901095E+03  0.29801722356E+03  0.46999998093E+01 0.  1.
</event>
<event>
10   0  0.1583500E-03  0.2406799E+03  0.7818609E-02  0.1125454E+00
       21   -1    0    0  501  503  0.00000000000E+00  0.00000000000E+00  0.67989575885E+02  0.67989575885E+02  0.00000000000E+00 0. -1.
        2   -1    0    0  503    0  0.00000000000E+00  0.00000000000E+00 -0.12603292074E+04  0.12603292074E+04  0.25500000920E-02 0. -1.
       25    2    1    2    0    0 -0.13029807757E+03 -0.10058733383E+03 -0.99741061634E+03  0.10186026046E+04  0.12501171014E+03 0.  0.
        6    2    1    2  501    0  0.13029807757E+03  0.10058733383E+03 -0.19492901521E+03  0.30971617876E+03  0.17558869460E+03 0.  0.
       24    2    4    4    0    0  0.10240939434E+03  0.89601993103E+02 -0.21931912210E+03  0.27078773574E+03  0.81907992867E+02 0.  0.
      -13    1    5    5    0    0  0.76777542876E+02  0.47424346477E+02 -0.72078781955E+02  0.11549554840E+03  0.10565999895E+00 0.  1.
       14    1    5    5    0    0  0.25631851463E+02  0.42177646626E+02 -0.14724034014E+03  0.15529218734E+03  0.00000000000E+00 0. -1.
        5    1    4    4  501    0  0.27888683234E+02  0.10985340731E+02  0.24390106890E+02  0.38928443018E+02  0.46999998093E+01 0. -1.
        5    1    3    3  502    0 -0.96758680914E+02 -0.51193372180E+02 -0.31389565117E+03  0.33246890608E+03  0.46999998093E+01 0.  1.
       -5    1    3    3    0  502 -0.33539396659E+02 -0.49393961654E+02 -0.68351496518E+03  0.68613369848E+03  0.46999998093E+01 0.  1.
</event>
<event>
10   0  0.1583500E-03  0.2108904E+03  0.7818609E-02  0.1147215E+00
        2   -1    0    0  503    0  0.00000000000E+00  0.00000000000E+00  0.13317074347E+04  0.13317074347E+04  0.00000000000E+00 0. -1.
       21   -1    0    0  501  503  0.00000000000E+00  0.00000000000E+00 -0.47484739968E+02  0.47484739968E+02  0.25500000920E-02 0.  1.
       25    2    1    2    0    0  0.51472446375E+02 -0.12055649700E+03  0.10437319670E+04  0.10593319768E+04  0.12499814602E+03 0.  0.
        6    2    1    2  501    0 -0.51472446375E+02  0.12055649700E+03  0.24049072775E+03  0.31986019785E+03  0.16520131456E+03 0.  0.
       24    2    4    4    0    0 -0.16182095061E+02  0.12363433231E+03  0.24249509031E+03  0.28406928513E+03  0.79650371002E+02 0.  0.
      -11    1    5    5    0    0 -0.63189682893E+01  0.17477468567E+02 -0.63004684719E+00  0.18595381874E+02  0.51099999109E-03 0.  1.
       12    1    5    5    0    0 -0.98631267715E+01  0.10615686374E+03  0.24312513716E+03  0.26547390325E+03  0.00000000000E+00 0. -1.
        5    1    4    4  501    0 -0.35290351314E+02 -0.30778353120E+01 -0.20043625630E+01  0.35790912723E+02  0.46999998093E+01 0. -1.
        5    1    3    3  502    0  0.91324340610E+02 -0.10160507689E+03  0.79900567140E+03  0.81061450750E+03  0.46999998093E+01 0. -1.
       -5    1    3    3    0  502 -0.39851894235E+02 -0.18951420104E+02  0.24472629556E+03  0.24871746930E+03  0.46999998093E+01 0. -1.
</event>
<event>
10   0  0.1583500E-03  0.1742208E+03  0.7818609E-02  0.1187211E+00
       21   -1    0    0  501  503  0.00000000000E+00  0.00000000000E+00  0.10110568519E+03  0.10110568519E+03  0.00000000000E+00 0.  1.
       -4   -1    0    0    0  501  0.00000000000E+00  0.00000000000E+00 -0.24677777481E+03  0.24678104271E+03  0.12699999809E+01 0.  1.
       25    2    1    2    0    0  0.27221094621E+00  0.27839377519E+02 -0.11263457084E+03  0.17056110767E+03  0.12501775818E+03 0.  0.
       -6    2    1    2    0  503 -0.27221094621E+00 -0.27839377519E+02 -0.33037518778E+02  0.17732562023E+03  0.17198195517E+03 0.  0.
      -24    2    4    4    0    0  0.28557100365E+01 -0.77053323454E+02  0.12344218803E+02  0.11014386327E+03  0.77678318357E+02 0.  0.
       13    1    5    5    0    0 -0.18649879657E+02  0.72684899085E+01 -0.66154445041E+01  0.21081371559E+02  0.10565999895E+00 0. -1.
      -14    1    5    5    0    0  0.21505589694E+02 -0.84321813363E+02  0.18959663307E+02  0.89062491710E+02  0.00000000000E+00 0.  1.
       -5    1    4    4    0  503 -0.31279209827E+01  0.49213945936E+02 -0.45381737581E+02  0.67181756961E+02  0.46999998093E+01 0.  1.
        5    1    3    3  502    0 -0.22363170320E+02  0.73167987357E+02 -0.75285968576E+02  0.10744176480E+03  0.46999998093E+01 0. -1.
       -5    1    3    3    0  502  0.22635381266E+02 -0.45328609838E+02 -0.37348602267E+02  0.63119342871E+02  0.46999998093E+01 0. -1.
</event>
<event>
10   0  0.1583500E-03  0.2523196E+03  0.7818609E-02  0.1116850E+00
        2   -1    0    0  503    0  0.00000000000E+00  0.00000000000E+00  0.12445239361E+04  0.12445239361E+04  0.00000000000E+00 0. -1.
       21   -1    0    0  501  503  0.00000000000E+00  0.00000000000E+00 -0.47712617967E+02  0.47712617967E+02  0.25500000920E-02 0.  1.
       25    2    1    2    0    0 -0.14870340730E+03 -0.10819263887E+03  0.41641114555E+03  0.47205999192E+03  0.12499617350E+03 0.  0.
        6    2    1    2  501    0  0.14870340730E+03  0.10819263887E+03  0.78040017255E+03  0.82017656212E+03  0.17276230283E+03 0.  0.
       24    2    4    4    0    0  0.26616112000E+01  0.48522552692E+02  0.27326007974E+03  0.28904391472E+03  0.80708061336E+02 0.  0.
      -15    1    5    5    0    0  0.78990220888E+01  0.70821526119E+02  0.20420253339E+03  0.21628665119E+03  0.17769999504E+01 0.  1.
       16    1    5    5    0    0 -0.52374108888E+01 -0.22298973427E+02  0.69057546351E+02  0.72757263532E+02  0.00000000000E+00 0. -1.
        5    1    4    4  501    0  0.14604179610E+03  0.59670086175E+02  0.50714009282E+03  0.53113264740E+03  0.46999998093E+01 0. -1.
        5    1    3    3  502    0 -0.12077107202E+03 -0.14691582722E+02  0.26825359899E+03  0.29459052566E+03  0.46999998093E+01 0.  1.
       -5    1    3    3    0  502 -0.27932335276E+02 -0.93501056145E+02  0.14815754657E+03  0.17746946627E+03  0.46999998093E+01 0.  1.
</event>
<event>
10   0  0.1583500E-03  0.2538592E+03  0.7818609E-02  0.1115761E+00
       21   -1    0    0  501  503  0.00000000000E+00  0.00000000000E+00  0.19877856191E+03  0.19877856191E+03  0.00000000000E+00 0.  1.
        2   -1    0    0  503    0  0.00000000000E+00  0.00000000000E+00 -0.31631118402E+03  0.31631118403E+03  0.25500000920E-02 0. -1.
       25    2    1    2    0    0 -0.74919028051E+02  0.17065176184E+03 -0.13282288741E+03  0.26077047747E+03  0.12499775164E+03 0.  0.
        6    2    1    2  501    0  0.74919028051E+02 -0.17065176184E+03  0.15290265299E+02  0.25431926848E+03  0.17236476880E+03 0.  0.
       24    2    4    4    0    0  0.10091112892E+03 -0.18308413092E+03  0.19264645495E+02  0.22485677020E+03  0.80539341974E+02 0.  0.
      -15    1    5    5    0    0  0.11185488870E+02 -0.10138477628E+03  0.17433985404E+02  0.10349439404E+03  0.17769999504E+01 0.  1.
       16    1    5    5    0    0  0.89725640050E+02 -0.81699354643E+02  0.18306600912E+01  0.12136237616E+03  0.00000000000E+00 0. -1.
        5    1    4    4  501    0 -0.25992100869E+02  0.12432369080E+02 -0.39743801960E+01  0.29462498277E+02  0.46999998093E+01 0. -1.
        5    1    3    3  502    0 -0.10595613418E+03  0.14731704719E+03 -0.89454083226E+02  0.20236881619E+03  0.46999998093E+01 0.  1.
       -5    1    3    3    0  502  0.31037106133E+02  0.23334714649E+02 -0.43368804184E+02  0.58401661273E+02  0.46999998093E+01 0.  1.
</event>
<event>
10   0  0.1583500E-03  0.3523222E+03  0.7818609E-02  0.1063839E+00
       21   -1    0    0  501  503  0.00000000000E+00  0.00000000000E+00  0.19512869396E+03  0.19512869396E+03  0.00000000000E+00 0. -1.
        2   -1    0    0  503    0  0.00000000000E+00  0.00000000000E+00 -0.72583832678E+03  0.72583832679E+03  0.25500000920E-02 0.  1.
       25    2    1    2    0    0  0.34406530365E+02 -0.30524690421E+03 -0.45088423907E+03  0.55971495097E+03  0.12499898974E+03 0.  0.
        6    2    1    2  501    0 -0.34406530365E+02  0.30524690421E+03 -0.79825393760E+02  0.36125206978E+03  0.17254414673E+03 0.  0.
       24    2    4    4    0    0 -0.41100531734E+02  0.23113830210E+03  0.88323406729E+01  0.24541089215E+03  0.70952993879E+02 0.  0.
      -15    1    5    5    0    0 -0.10963553893E+02  0.18240788827E+02  0.21125911390E+02  0.30039769504E+02  0.17769999504E+01 0.  1.
       16    1    5    5    0    0 -0.30136977841E+02  0.21289751327E+03 -0.12293570717E+02  0.21537112265E+03  0.00000000000E+00 0. -1.
        5    1    4    4  501    0  0.66940013691E+01  0.74108602109E+02 -0.88657734433E+02  0.11584117763E+03  0.46999998093E+01 0. -1.
        5    1    3    3  502    0  0.95268355099E+01  0.10453338728E+02 -0.21593831224E+02  0.26237691029E+02  0.46999998093E+01 0. -1.
       -5    1    3    3    0  502  0.24879694855E+02 -0.31570024294E+03 -0.42929040784E+03  0.53347725994E+03  0.46999998093E+01 0. -1.
</event>
<event>
10   0  0.1583500E-03  0.1802839E+03  0.7818609E-02  0.1180266E+00
       21   -1    0    0  501  503  0.00000000000E+00  0.00000000000E+00  0.81212430868E+02  0.81212430868E+02  0.00000000000E+00 0.  1.
        2   -1    0    0  503    0  0.00000000000E+00  0.00000000000E+00 -0.15319698085E+04  0.15319698085E+04  0.25500000920E-02 0.  1.
       25    2    1    2    0    0  0.25338202948E+02  0.44193813053E+02 -0.14246351430E+04  0.14310157086E+04  0.12500219968E+03 0.  0.
        6    2    1    2  501    0 -0.25338202948E+02 -0.44193813053E+02 -0.26122234669E+02  0.18216653081E+03  0.17293685600E+03 0.  0.
       24    2    4    4    0    0 -0.18586426686E+02 -0.92637085242E+02  0.10959871152E+02  0.12060753737E+03  0.74155070471E+02 0.  0.
      -15    1    5    5    0    0 -0.43753230345E+02 -0.73522829757E+02 -0.39458921638E+01  0.85666092796E+02  0.17769999504E+01 0.  1.
       16    1    5    5    0    0  0.25166803659E+02 -0.19114255485E+02  0.14905763316E+02  0.34941444578E+02  0.00000000000E+00 0. -1.
        5    1    4    4  501    0 -0.67517762621E+01  0.48443272190E+02 -0.37082105821E+02  0.61558993441E+02  0.46999998093E+01 0. -1.
        5    1    3    3  502    0  0.50080137944E+02  0.52919937740E+02 -0.13461468552E+04  0.13481253598E+04  0.46999998093E+01 0.  1.
       -5    1    3    3    0  502 -0.24741934997E+02 -0.87261246871E+01 -0.78488287794E+02  0.82890348765E+02  0.46999998093E+01 0.  1.
</event>
<event>
10   0  0.1583500E-03  0.2252002E+03  0.7818609E-02  0.1136578E+00
        2   -1    0    0  503    0  0.00000000000E+00  0.00000000000E+00  0.17090692768E+04  0.17090692768E+04  0.00000000000E+00 0. -1.
       21   -1    0    0  501  503  0.00000000000E+00  0.00000000000E+00 -0.27041378234E+02  0.27041378234E+02  0.25500000920E-02 0. -1.
       25    2    1    2    0    0  0.14332097567E+03  0.27323443456E+02  0.98667911937E+03  0.10052036466E+04  0.12494484347E+03 0.  0.
        6    2    1    2  501    0 -0.14332097567E+03 -0.27323443456E+02  0.69534877923E+03  0.73090700847E+03  0.17154491430E+03 0.  0.
       24    2    4    4    0    0  0.10213812430E+01 -0.13085300781E+02  0.23295147209E+03  0.24627230031E+03  0.78812367265E+02 0.  0.
      -15    1    5    5    0    0 -0.20722673857E+02  0.14595640875E+02  0.26020199716E+02  0.36368536765E+02  0.17769999504E+01 0.  1.
       16    1    5    5    0    0  0.21744055101E+02 -0.27680941655E+02  0.20693127238E+03  0.20990376355E+03  0.00000000000E+00 0. -1.
        5    1    4    4  501    0 -0.14434235691E+03 -0.14238142675E+02  0.46239730713E+03  0.48463470815E+03  0.46999998093E+01 0. -1.
        5    1    3    3  502    0  0.12189922031E+03  0.27415532650E+02  0.96900124685E+03  0.97703456322E+03  0.46999998093E+01 0. -1.
       -5    1    3    3    0  502  0.21421755364E+02 -0.92089194211E-01  0.17677872524E+02  0.28169083380E+02  0.46999998093E+01 0. -1.
</event>
<event>
10   0  0.1583500E-03  0.2227459E+03  0.7818609E-02  0.1139045E+00
        2   -1    0    0  503    0  0.00000000000E+00  0.00000000000E+00  0.61366175493E+03  0.61366175493E+03  0.00000000000E+00 0. -1.
       21   -1    0    0  501  503  0.00000000000E+00  0.00000000000E+00 -0.24921097133E+03  0.24921097133E+03  0.25500000920E-02 0. -1.
       25    2    1    2    0    0 -0.12527882765E+03  0.60404741638E+02  0.54497105511E+03  0.57616152993E+03  0.12500056078E+03 0.  0.
        6    2    1    2  501    0  0.12527882765E+03 -0.60404741638E+02 -0.18052027151E+03  0.28671119634E+03  0.17398914969E+03 0.  0.
       24    2    4    4    0    0  0.14661862711E+03 -0.50175761356E+02 -0.19036173612E+03  0.26065426823E+03  0.87683682193E+02 0.  0.
      -13    1    5    5    0    0  0.93903650198E+02 -0.65415861047E+02 -0.87461489032E+02  0.14403698700E+03  0.10565999895E+00 0.  1.
       14    1    5    5    0    0  0.52714976911E+02  0.15240099690E+02 -0.10290024709E+03  0.11661728123E+03  0.00000000000E+00 0. -1.
        5    1    4    4  501    0 -0.21339799458E+02 -0.10228980281E+02  0.98414646148E+01  0.26056928109E+02  0.46999998093E+01 0. -1.
        5    1    3    3  502    0 -0.40907135849E+02  0.69424123634E+02  0.40046867591E+03  0.40852215741E+03  0.46999998093E+01 0. -1.
       -5    1    3    3    0  502 -0.84371691802E+02 -0.90193819966E+01  0.14450237919E+03  0.16763937252E+03  0.46999998093E+01 0. -1.
</event>
<event>
10   0  0.1583500E-03  0.1853626E+03  0.7818609E-02  0.1175436E+00
        2   -1    0    0  503    0  0.00000000000E+00  0.00000000000E+00  0.67522369512E+03  0.67522369512E+03  0.00000000000E+00 0. -1.
       21   -1    0    0  501  503  0.00000000000E+00  0.00000000000E+00 -0.38858606893E+02  0.38858606893E+02  0.25500000920E-02 0. -1.
       25    2    1    2    0    0 -0.22167610820E+02  0.55209857463E+02  0.26276950848E+03  0.29702960695E+03  0.12505695297E+03 0.  0.
        6    2    1    2  501    0  0.22167610820E+02 -0.55209857463E+02  0.37359557974E+03  0.41705269507E+03  0.17555558073E+03 0.  0.
       24    2    4    4    0    0 -0.14340233295E+02 -0.78495485007E+02  0.15884736647E+03  0.19793188766E+03  0.87048049166E+02 0.  0.
      -11    1    5    5    0    0 -0.19560468127E+02 -0.15696318791E+02 -0.20215650405E+01  0.25160943194E+02  0.51099999109E-03 0.  1.
       12    1    5    5    0    0  0.52202348318E+01 -0.62799166216E+02  0.16086893151E+03  0.17277094447E+03  0.00000000000E+00 0. -1.
        5    1    4    4  501    0  0.36507844115E+02  0.23285627544E+02  0.21474821328E+03  0.21912080740E+03  0.46999998093E+01 0. -1.
        5    1    3    3  502    0  0.23564979726E+02 -0.23932071106E+00 -0.54971844856E+00  0.24036591531E+02  0.46999998093E+01 0.  1.
       -5    1    3    3    0  502 -0.45732590546E+02  0.55449178174E+02  0.26331922693E+03  0.27299301542E+03  0.46999998093E+01 0.  1.
</event>
<event>
10   0  0.1583500E-03  0.3060135E+03  0.7818609E-02  0.1085008E+00
        2   -1    0    0  503    0  0.00000000000E+00  0.00000000000E+00  0.37193422783E+03  0.37193422784E+03  0.00000000000E+00 0. -1.
       21   -1    0    0  501  503  0.00000000000E+00  0.00000000000E+00 -0.23662244055E+03  0.23662244055E+03  0.25500000920E-02 0. -1.
       25    2    1    2    0    0 -0.99193512779E+02  0.23543294411E+03  0.35224387707E+02  0.28659121898E+03  0.12500298060E+03 0.  0.
        6    2    1    2  501    0  0.99193512779E+02 -0.23543294411E+03  0.10008739958E+03  0.32196544941E+03  0.16845248265E+03 0.  0.
       24    2    4    4    0    0  0.74610301544E+02 -0.82755110862E+02 -0.98255238939E+01  0.13218189959E+03  0.70430165329E+02 0.  0.
      -11    1    5    5    0    0 -0.10319049144E+02  0.31191605725E+01 -0.30977521956E+01  0.11216416845E+02  0.51099999109E-03 0.  1.
       12    1    5    5    0    0  0.84929350688E+02 -0.85874271435E+02 -0.67277716983E+01  0.12096548274E+03  0.00000000000E+00 0. -1.
        5    1    4    4  501    0  0.24583211235E+02 -0.15267783325E+03  0.10991292347E+03  0.18978354982E+03  0.46999998093E+01 0. -1.
        5    1    3    3  502    0 -0.81984718168E+02  0.12644346430E+03  0.76028516743E+02  0.16885457955E+03  0.46999998093E+01 0.  1.
       -5    1    3    3    0  502 -0.17208794610E+02  0.10898947981E+03 -0.40804129037E+02  0.11773663943E+03  0.46999998093E+01 0.  1.
</event>
<event>
10   0  0.1583500E-03  0.1759260E+03  0.7818609E-02  0.1183383E+00
        2   -1    0    0  503    0  0.00000000000E+00  0.00000000000E+00  0.17512043868E+03  0.17512043870E+03  0.00000000000E+00 0. -1.
       21   -1    0    0  501  503  0.00000000000E+00  0.00000000000E+00 -0.39163493009E+03  0.39163493009E+03  0.25500000920E-02 0. -1.
       25    2    1    2    0    0  0.41960847816E+02 -0.31085036195E+02  0.12389198117E+03  0.18357586900E+03  0.12499553774E+03 0.  0.
        6    2    1    2  501    0 -0.41960847816E+02  0.31085036195E+02 -0.34040647259E+03  0.38317949979E+03  0.16799693525E+03 0.  0.
       24    2    4    4    0    0  0.21758680339E+02  0.55614731402E+02 -0.14090236326E+03  0.17226277723E+03  0.79085712554E+02 0.  0.
      -15    1    5    5    0    0  0.11257838818E+02  0.29127814981E+02 -0.29706540426E+01  0.31418960114E+02  0.17769999504E+01 0.  1.
       16    1    5    5    0    0  0.10500841521E+02  0.26486916421E+02 -0.13793170921E+03  0.14084381712E+03  0.00000000000E+00 0. -1.
        5    1    4    4  501    0 -0.63719528155E+02 -0.24529695207E+02 -0.19950410933E+03  0.21091672256E+03  0.46999998093E+01 0. -1.
        5    1    3    3  502    0 -0.49747965047E+01  0.27181950898E+02  0.10155399764E+03  0.10535137157E+03  0.46999998093E+01 0.  1.
       -5    1    3    3    0  502  0.46935644321E+02 -0.58266987094E+02  0.22337983528E+02  0.78224497436E+02  0.46999998093E+01 0.  1.
</event>
<event>
10   0  0.1583500E-03  0.2550027E+03  0.7818609E-02  0.1114952E+00
       21   -1    0    0  501  503  0.00000000000E+00  0.00000000000E+00  0.19879974767E+03  0.19879974767E+03  0.00000000000E+00 0.  1.
        2   -1    0    0  503    0  0.00000000000E+00  0.00000000000E+00 -0.29130154670E+03  0.29130154671E+03  0.25500000920E-02 0. -1.
       25    2    1    2    0    0  0.14732315653E+03 -0.11718802082E+03 -0.52409193465E+02  0.23196610977E+03  0.12499763137E+03 0.  0.
        6    2    1    2  501    0 -0.14732315653E+03  0.11718802082E+03 -0.40092605565E+02  0.25813518462E+03  0.17201515003E+03 0.  0.
       24    2    4    4    0    0 -0.13260361309E+03  0.24964048537E+02 -0.44082191855E+02  0.16454067185E+03  0.83207398292E+02 0.  0.
      -15    1    5    5    0    0 -0.56517934306E+02  0.42299351806E+02  0.74760930301E+01  0.71010997439E+02  0.17769999504E+01 0.  1.
       16    1    5    5    0    0 -0.76085678787E+02 -0.17335303269E+02 -0.51558284885E+02  0.93529674415E+02  0.00000000000E+00 0. -1.
        5    1    4    4  501    0 -0.14719543441E+02  0.92223972279E+02  0.39895862902E+01  0.93594512762E+02  0.46999998093E+01 0. -1.
        5    1    3    3  502    0  0.12345910283E+02 -0.63597163051E+02 -0.57248970062E+02  0.86582649649E+02  0.46999998093E+01 0.  1.
       -5    1    3    3    0  502  0.13497724625E+03 -0.53590857765E+02  0.48397765971E+01  0.14538346012E+03  0.46999998093E+01 0.  1.
</event>
<event>
10   0  0.1583500E-03  0.3695377E+03  0.7818609E-02  0.1056852E+00
       21   -1    0    0  501  503  0.00000000000E+00  0.00000000000E+00  0.68498915656E+03  0.68498915656E+03  0.00000000000E+00 0. -1.
        2   -1    0    0  503    0  0.00000000000E+00  0.00000000000E+00 -0.32145145672E+03  0.32145145673E+03  0.25500000920E-02 0.  1.
       25    2    1    2    0    0  0.19710037179E+02  0.32571876883E+03 -0.14456910156E+03  0.37816472116E+03  0.12500851677E+03 0.  0.
        6    2    1    2  501    0 -0.19710037179E+02 -0.32571876883E+03  0.50810680140E+03  0.62827589214E+03  0.17342685223E+03 0.  0.
       24    2    4    4    0    0 -0.80124638456E+01 -0.30160663031E+03  0.35476344291E+03  0.47253731619E+03  0.80022845143E+02 0.  0.
      -13    1    5    5    0    0  0.20354587750E+01 -0.95717546880E+02  0.60485659552E+02  0.11324538864E+03  0.10565999895E+00 0.  1.
       14    1    5    5    0    0 -0.10047922621E+02 -0.20588908343E+03  0.29427778336E+03  0.35929192755E+03  0.00000000000E+00 0. -1.
        5    1    4    4  501    0 -0.11697573333E+02 -0.24112138524E+02  0.15334335849E+03  0.15573857595E+03  0.46999998093E+01 0. -1.
        5    1    3    3  502    0 -0.11247529433E+02  0.22729606834E+03 -0.15342537902E+03  0.27450217946E+03  0.46999998093E+01 0.  1.
       -5    1    3    3    0  502  0.30957566612E+02  0.98422700489E+02  0.88562774580E+01  0.10366254170E+03  0.46999998093E+01 0.  1.
</event>
<event>
10   0  0.1583500E-03  0.1749918E+03  0.7818609E-02  0.1185962E+00
       21   -1    0    0  501  503  0.00000000000E+00  0.00000000000E+00  0.13495337349E+03  0.13495337349E+03  0.00000000000E+00 0.  1.
        4   -1    0    0  503    0  0.00000000000E+00  0.00000000000E+00 -0.21937004661E+03  0.21937372279E+03  0.12699999809E+01 0.  1.
       25    2    1    2    0    0 -0.35041430244E+02 -0.56512256333E+01 -0.11870519203E+03  0.17600758793E+03  0.12501164030E+03 0.  0.
        6    2    1    2  501    0  0.35041430244E+02  0.56512256333E+01  0.34288518916E+02  0.17831950835E+03  0.17135432980E+03 0.  0.
       24    2    4    4    0    0  0.83072526257E+02  0.86376714128E+01 -0.10630051809E+02  0.11232198539E+03  0.74347672549E+02 0.  0.
      -15    1    5    5    0    0  0.29610526858E+02 -0.29569362405E+02 -0.19161587145E+02  0.46059251455E+02  0.17769999504E+01 0.  1.
       16    1    5    5    0    0  0.53461999399E+02  0.38207033818E+02  0.85315353356E+01  0.66262733932E+02  0.00000000000E+00 0. -1.
        5    1    4    4  501    0 -0.48031096013E+02 -0.29864457795E+01  0.44918570725E+02  0.65997522960E+02  0.46999998093E+01 0. -1.
        5    1    3    3  502    0 -0.77548459167E+02 -0.17593804796E+02 -0.99941730270E+02  0.12780354038E+03  0.46999998093E+01 0.  1.
       -5    1    3    3    0  502  0.42507028923E+02  0.11942579162E+02 -0.18763461764E+02  0.48204047553E+02  0.46999998093E+01 0.  1.
</event>
<event>
10   0  0.1583500E-03  0.1921737E+03  0.7818609E-02  0.1166905E+00
       21   -1    0    0  501  503  0.00000000000E+00  0.00000000000E+00  0.15862198582E+03  0.15862198582E+03  0.00000000000E+00 0.  1.
       -2   -1    0    0    0  501  0.00000000000E+00  0.00000000000E+00 -0.36618860651E+03  0.36618860652E+03  0.25500000920E-02 0.  1.
       25    2    1    2    0    0 -0.74697431647E+02 -0.39942603105E+02 -0.28106822872E+03  0.31906025349E+03  0.12499991329E+03 0.  0.
       -6    2    1    2    0  503  0.74697431647E+02  0.39942603105E+02  0.73501608031E+02  0.20575033885E+03  0.17249810931E+03 0.  0.
      -24    2    4    4    0    0 -0.13240034534E+02  0.41358137383E+02  0.61429332586E+02  0.11685246751E+03  0.89415559160E+02 0.  0.
       11    1    5    5    0    0 -0.68934038996E+01  0.11173226743E+02 -0.23266421734E+02  0.26714909578E+02  0.51099999109E-03 0. -1.
      -12    1    5    5    0    0 -0.63466306347E+01  0.30184910640E+02  0.84695754320E+02  0.90137557936E+02  0.00000000000E+00 0.  1.
       -5    1    4    4    0  503  0.87937466181E+02 -0.14155342776E+01  0.12072275445E+02  0.88897871337E+02  0.46999998093E+01 0.  1.
        5    1    3    3  502    0 -0.95137574353E+00 -0.68365746551E+02 -0.97810577764E+02  0.11943106605E+03  0.46999998093E+01 0.  1.
       -5    1    3    3    0  502 -0.73746055903E+02  0.28423143445E+02 -0.18325765095E+03  0.19962918743E+03  0.46999998093E+01 0.  1.
</event>
<event>
10   0  0.1583500E-03  0.1890289E+03  0.7818609E-02  0.1169970E+00
       -2   -1    0    0    0  501  0.00000000000E+00  0.00000000000E+00  0.19381433789E+03  0.19381433790E+03  0.00000000000E+00 0.  1.
       21   -1    0    0  501  503  0.00000000000E+00  0.00000000000E+00 -0.31595051075E+03  0.31595051075E+03  0.25500000920E-02 0.  1.
       25    2    1    2    0    0  0.77218293267E+02 -0.16813430822E+02  0.12844456380E+03  0.19588170335E+03  0.12500511776E+03 0.  0.
       -6    2    1    2    0  503 -0.77218293267E+02  0.16813430822E+02 -0.25058073667E+03  0.31388314531E+03  0.17171653108E+03 0.  0.
      -24    2    4    4    0    0 -0.84628032520E+01  0.41434323931E+02 -0.55397090958E+02  0.10543110925E+03  0.79110422023E+02 0.  0.
       11    1    5    5    0    0 -0.86299736214E+01 -0.18295160035E+02  0.46283486368E+01  0.20751167119E+02  0.51099999109E-03 0. -1.
      -12    1    5    5    0    0  0.16717036942E+00  0.59729483966E+02 -0.60025439595E+02  0.84679942131E+02  0.00000000000E+00 0.  1.
       -5    1    4    4    0  503 -0.68755490015E+02 -0.24620893109E+02 -0.19518364571E+03  0.20845203606E+03  0.46999998093E+01 0.  1.
        5    1    3    3  502    0 -0.33550835509E+02 -0.14161811170E+02  0.37193172367E+02  0.52265069864E+02  0.46999998093E+01 0.  1.
       -5    1    3    3    0  502  0.11076912878E+03 -0.26516196521E+01  0.91251391437E+02  0.14361663349E+03  0.46999998093E+01 0.  1.
</event>
<event>
10   0  0.1583500E-03  0.1822810E+03  0.7818609E-02  0.1177774E+00
       21   -1    0    0  501  503  0.00000000000E+00  0.00000000000E+00  0.12197577342E+02  0.12197577342E+02  0.00000000000E+00 0.  1.
        2   -1    0    0  503    0  0.00000000000E+00  0.00000000000E+00 -0.31076679194E+04  0.31076679194E+04  0.25500000920E-02 0.  1.
       25    2    1    2    0    0  0.52961062513E+02 -0.25532092564E+02 -0.22840450860E+04  0.22882181496E+04  0.12499433340E+03 0.  0.
        6    2    1    2  501    0 -0.52961062513E+02  0.25532092564E+02 -0.81142525597E+03  0.83164734706E+03  0.17253869695E+03 0.  0.
       24    2    4    4    0    0 -0.44096693304E+02  0.55084908839E+01 -0.19515837437E+03  0.21497362375E+03  0.78434724373E+02 0.  0.
      -15    1    5    5    0    0 -0.44617174914E+02  0.19316166711E+02 -0.19518406537E+03  0.20115611772E+03  0.17769999504E+01 0.  1.
       16    1    5    5    0    0  0.52048161051E+00 -0.13807675827E+02  0.25690993825E-01  0.13817506030E+02  0.00000000000E+00 0. -1.
        5    1    4    4  501    0 -0.88643692089E+01  0.20023601680E+02 -0.61626688160E+03  0.61667372331E+03  0.46999998093E+01 0. -1.
        5    1    3    3  502    0  0.42464086969E+01  0.48739317489E+02 -0.78803380224E+03  0.78956501729E+03  0.46999998093E+01 0.  1.
       -5    1    3    3    0  502  0.48714653816E+02 -0.74271410053E+02 -0.14960112838E+04  0.14986531324E+04  0.46999998093E+01 0.  1.
</event>
<event>
10   0  0.1583500E-03  0.1901690E+03  0.7818609E-02  0.1168935E+00
       21   -1    0    0  501  503  0.00000000000E+00  0.00000000000E+00  0.49219538490E+02  0.49219538490E+02  0.00000000000E+00 0. -1.
        2   -1    0    0  503    0  0.00000000000E+00  0.00000000000E+00 -0.84113287770E+03  0.84113287771E+03  0.25500000920E-02 0. -1.
       25    2    1    2    0    0  0.19435187346E+02 -0.78207581215E+02 -0.60753843279E+03  0.62547821449E+03  0.12500358878E+03 0.  0.
        6    2    1    2  501    0 -0.19435187346E+02  0.78207581215E+02 -0.18437490642E+03  0.26487420171E+03  0.17225006342E+03 0.  0.
       24    2    4    4    0    0 -0.78608427284E+02  0.57775691511E+02 -0.13972749869E+03  0.18783904443E+03  0.79008970081E+02 0.  0.
      -15    1    5    5    0    0  0.16042124421E+02  0.52703849282E+01 -0.23811781866E+02  0.29245262825E+02  0.17769999504E+01 0.  1.
       16    1    5    5    0    0 -0.94650551706E+02  0.52505306583E+02 -0.11591571682E+03  0.15859378160E+03  0.00000000000E+00 0. -1.
        5    1    4    4  501    0  0.59173239938E+02  0.20431889704E+02 -0.44647407731E+02  0.77035157279E+02  0.46999998093E+01 0. -1.
        5    1    3    3  502    0  0.77105514329E+01 -0.10899121655E+03 -0.37671645500E+03  0.39227020707E+03  0.46999998093E+01 0.  1.
       -5    1    3    3    0  502  0.11724635913E+02  0.30783635339E+02 -0.23082197779E+03  0.23320800742E+03  0.46999998093E+01 0.  1.
</event>
<event>
10   0  0.1583500E-03  0.2374847E+03  0.7818609E-02  0.1127310E+00
        4   -1    0    0  503    0  0.00000000000E+00  0.00000000000E+00  0.31212087971E+03  0.31212346348E+03  0.00000000000E+00 0. -1.
       21   -1    0    0  501  503  0.00000000000E+00  0.00000000000E+00 -0.37543089420E+03  0.37543089420E+03  0.12699999809E+01 0.  1.
       25    2    1    2    0    0 -0.11194414883E+01 -0.16310852764E+03  0.23113059478E+03  0.30927636534E+03  0.12499949351E+03 0.  0.
        6    2    1    2  501    0  0.11194414883E+01  0.16310852764E+03 -0.29444060927E+03  0.37827799234E+03  0.17260742210E+03 0.  0.
       24    2    4    4    0    0  0.38911147933E+02  0.17061865365E+03 -0.20459658192E+03  0.28040739249E+03  0.78382026118E+02 0.  0.
      -13    1    5    5    0    0  0.15866802020E+02  0.77770036440E+02 -0.15140475161E+03  0.17094836632E+03  0.10565999895E+00 0.  1.
       14    1    5    5    0    0  0.23044345913E+02  0.92848617210E+02 -0.53191830316E+02  0.10945902616E+03  0.00000000000E+00 0. -1.
        5    1    4    4  501    0 -0.37791706445E+02 -0.75101260071E+01 -0.89844027341E+02  0.97870599854E+02  0.46999998093E+01 0. -1.
        5    1    3    3  502    0  0.29977553177E+02 -0.16742563086E+03  0.21334469142E+03  0.27288833416E+03  0.46999998093E+01 0.  1.
       -5    1    3    3    0  502 -0.31096994665E+02  0.43171032123E+01  0.17785903352E+02  0.36388031186E+02  0.46999998093E+01 0.  1.
</event>
<event>
10   0  0.1583500E-03  0.3327167E+03  0.7818609E-02  0.1072443E+00
        2   -1    0    0  503    0  0.00000000000E+00  0.00000000000E+00  0.11765776280E+04  0.11765776280E+04  0.00000000000E+00 0.  1.
       21   -1    0    0  501  503  0.00000000000E+00  0.00000000000E+00 -0.10700744708E+03  0.10700744708E+03  0.25500000920E-02 0.  1.
       25    2    1    2    0    0  0.11372323892E+03 -0.26069807644E+03  0.79038486440E+03  0.84925246810E+03  0.12500023431E+03 0.  0.
        6    2    1    2  501    0 -0.11372323892E+03  0.26069807644E+03  0.27918531651E+03  0.43433260698E+03  0.17263809081E+03 0.  0.
       24    2    4    4    0    0 -0.62816407087E+02  0.17589793976E+03  0.26375571912E+03  0.33411917882E+03  0.84749985711E+02 0.  0.
      -13    1    5    5    0    0  0.10503559314E+02  0.33358283619E+02  0.14693010537E+02  0.37934095045E+02  0.10565999895E+00 0.  1.
       14    1    5    5    0    0 -0.73319966400E+02  0.14253965614E+03  0.24906270858E+03  0.29618508377E+03  0.00000000000E+00 0. -1.
        5    1    4    4  501    0 -0.50906831836E+02  0.84800136681E+02  0.15429597393E+02  0.10021342815E+03  0.46999998093E+01 0. -1.
        5    1    3    3  502    0  0.99386493725E+02 -0.13476058475E+03  0.30952793897E+03  0.35194846972E+03  0.46999998093E+01 0. -1.
       -5    1    3    3    0  502  0.14336745198E+02 -0.12593749169E+03  0.48085692543E+03  0.49730399838E+03  0.46999998093E+01 0. -1.
</event>
<event>
10   0  0.1583500E-03  0.2061035E+03  0.7818609E-02  0.1153200E+00
       -2   -1    0    0    0  501  0.00000000000E+00  0.00000000000E+00  0.11488943406E+03  0.11488943409E+03  0.00000000000E+00 0. -1.
       21   -1    0    0  501  503  0.00000000000E+00  0.00000000000E+00 -0.31194952929E+03  0.31194952929E+03  0.25500000920E-02 0.  1.
       25    2    1    2    0    0 -0.82792370663E+02  0.76657114962E+02 -0.57569443702E+02  0.17796893527E+03  0.12501124413E+03 0.  0.
       -6    2    1    2    0  503  0.82792370663E+02 -0.76657114962E+02 -0.13949065152E+03  0.24887002810E+03  0.17247538697E+03 0.  0.
      -24    2    4    4    0    0  0.11451750659E+03 -0.21619523869E+02 -0.10721817864E+03  0.17746118280E+03  0.80094134874E+02 0.  0.
       15    1    5    5    0    0 -0.47099566663E+01  0.15326694152E+02 -0.17097022582E+02  0.23506534313E+02  0.17769999504E+01 0. -1.
      -16    1    5    5    0    0  0.11922746326E+03 -0.36946218022E+02 -0.90121156058E+02  0.15395464849E+03  0.00000000000E+00 0.  1.
       -5    1    4    4    0  503 -0.31725135931E+02 -0.55037591092E+02 -0.32272472883E+02  0.71408845301E+02  0.46999998093E+01 0.  1.
        5    1    3    3  502    0 -0.80257573377E+02  0.33338635445E+02 -0.88769645426E+02  0.12431766827E+03  0.46999998093E+01 0. -1.
       -5    1    3    3    0  502 -0.25347972857E+01  0.43318479516E+02  0.31200201723E+02  0.53651267000E+02  0.46999998093E+01 0. -1.
</event>
<event>
10   0  0.1583500E-03  0.2190979E+03  0.7818609E-02  0.1141698E+00
       21   -1    0    0  501  503  0.00000000000E+00  0.00000000000E+00  0.91381981275E+02  0.91381981275E+02  0.00000000000E+00 0.  1.
        2   -1    0    0  503    0  0.00000000000E+00  0.00000000000E+00 -0.45278868273E+03  0.45278868274E+03  0.25500000920E-02 0.  1.
       25    2    1    2    0    0  0.11244293327E+03  0.75500835304E+02 -0.20037034015E+03  0.27225782824E+03  0.12502904643E+03 0.  0.
        6    2    1    2  501    0 -0.11244293327E+03 -0.75500835304E+02 -0.16103636131E+03  0.27191283578E+03  0.17222105336E+03 0.  0.
       24    2    4    4    0    0 -0.14389003828E+03 -0.84827538582E+02 -0.14012329701E+03  0.23272924145E+03  0.81414415454E+02 0.  0.
      -11    1    5    5    0    0 -0.49390169711E+02 -0.25785010979E+02 -0.26643578923E+01  0.55779516478E+02  0.51099999109E-03 0.  1.
       12    1    5    5    0    0 -0.94499868571E+02 -0.59042527603E+02 -0.13745893911E+03  0.17694972497E+03  0.00000000000E+00 0. -1.
        5    1    4    4  501    0  0.31447105008E+02  0.93267032784E+01 -0.20913064302E+02  0.39183594324E+02  0.46999998093E+01 0. -1.
        5    1    3    3  502    0  0.87726965384E+02 -0.15463642576E+02 -0.85177360567E+02  0.12333862918E+03  0.46999998093E+01 0. -1.
       -5    1    3    3    0  502  0.24715967890E+02  0.90964477880E+02 -0.11519297958E+03  0.14891919906E+03  0.46999998093E+01 0. -1.
</event>
<event>
10   0  0.1583500E-03  0.1789193E+03  0.7818609E-02  0.1180748E+00
       21   -1    0    0  501  503  0.00000000000E+00  0.00000000000E+00  0.74936511397E+02  0.74936511397E+02  0.00000000000E+00 0. -1.
       -2   -1    0    0    0  501  0.00000000000E+00  0.00000000000E+00 -0.38112925054E+03  0.38112925055E+03  0.25500000920E-02 0. -1.
       25    2    1    2    0    0 -0.51055344387E+02  0.20723063577E+02 -0.21631797767E+03  0.25584195323E+03  0.12500217605E+03 0.  0.
       -6    2    1    2    0  503  0.51055344387E+02 -0.20723063577E+02 -0.89874761477E+02  0.20022380871E+03  0.17022340401E+03 0.  0.
      -24    2    4    4    0    0  0.98666253461E+02 -0.12582809618E+01 -0.56002015497E+02  0.13845707541E+03  0.79356935093E+02 0.  0.
       15    1    5    5    0    0  0.39252122498E+02 -0.66572611949E+01  0.17724607964E+02  0.43616140401E+02  0.17769999504E+01 0. -1.
      -16    1    5    5    0    0  0.59414130964E+02  0.53989802331E+01 -0.73726623461E+02  0.94840935005E+02  0.00000000000E+00 0.  1.
       -5    1    4    4    0  503 -0.47610909075E+02 -0.19464782615E+02 -0.33872745980E+02  0.61766733308E+02  0.46999998093E+01 0.  1.
        5    1    3    3  502    0 -0.46497721975E+02  0.28492021623E+01 -0.22849651966E+03  0.23324430453E+03  0.46999998093E+01 0.  1.
       -5    1    3    3    0  502 -0.45576224123E+01  0.17873861414E+02  0.12178541986E+02  0.22597648706E+02  0.46999998093E+01 0.  1.
</event>
<event>
10   0  0.1583500E-03  0.2050184E+03  0.7818609E-02  0.1154318E+00
        2   -1    0    0  503    0  0.00000000000E+00  0.00000000000E+00  0.73787707244E+03  0.73787707244E+03  0.00000000000E+00 0.  1.
       21   -1    0    0  501  503  0.00000000000E+00  0.00000000000E+00 -0.47552853113E+02  0.47552853113E+02  0.25500000920E-02 0. -1.
       25    2    1    2    0    0 -0.87775384282E+02 -0.66637510367E+02  0.26096572198E+03  0.30963451526E+03  0.12500139646E+03 0.  0.
        6    2    1    2  501    0  0.87775384282E+02  0.66637510367E+02  0.42935849735E+03  0.47579541030E+03  0.17287995067E+03 0.  0.
       24    2    4    4    0    0  0.63145642489E+02  0.34711209637E+02  0.42066094806E+03  0.43427854359E+03  0.80311767266E+02 0.  0.
      -13    1    5    5    0    0  0.46609359742E+02 -0.16752859195E+02  0.26259675716E+03  0.26722679271E+03  0.10565999895E+00 0.  1.
       14    1    5    5    0    0  0.16536282747E+02  0.51464068832E+02  0.15806419090E+03  0.16705175088E+03  0.00000000000E+00 0. -1.
        5    1    4    4  501    0  0.24629741793E+02  0.31926300730E+02  0.86975492835E+01  0.41516866703E+02  0.46999998093E+01 0. -1.
        5    1    3    3  502    0  0.10608732395E+02 -0.49697260237E+02  0.15843989098E+03  0.16645615618E+03  0.46999998093E+01 0. -1.
       -5    1    3    3    0  502 -0.98384116677E+02 -0.16940250130E+02  0.10252583100E+03  0.14317835908E+03  0.46999998093E+01 0. -1.
</event>
<event>
10   0  0.1583500E-03  0.2247083E+03  0.7818609E-02  0.1137267E+00
       21   -1    0    0  501  503  0.00000000000E+00  0.00000000000E+00  0.12465241954E+04  0.12465241954E+04  0.00000000000E+00 0. -1.
        4   -1    0    0  503    0  0.00000000000E+00  0.00000000000E+00 -0.44920101429E+02  0.44938050830E+02  0.12699999809E+01 0.  1.
       25    2    1    2    0    0 -0.11502738387E+03 -0.85443672774E+02  0.25233802029E+03  0.31596242273E+03  0.12500342330E+03 0.  0.
        6    2    1    2  501    0  0.11502738387E+03  0.85443672774E+02  0.94926607372E+03  0.97549982354E+03  0.17309508009E+03 0.  0.
       24    2    4    4    0    0  0.15098853580E+03  0.69901320044E+02  0.75276820478E+03  0.77507958585E+03  0.80029130911E+02 0.  0.
      -11    1    5    5    0    0  0.40740058089E+02  0.39689596262E+02  0.12986750279E+03  0.14177653073E+03  0.51099999109E-03 0.  1.
       12    1    5    5    0    0  0.11024847771E+03  0.30211723783E+02  0.62290070199E+03  0.63330305513E+03  0.00000000000E+00 0. -1.
        5    1    4    4  501    0 -0.35961151932E+02  0.15542352730E+02  0.19649786894E+03  0.20042023769E+03  0.46999998093E+01 0. -1.
        5    1    3    3  502    0 -0.59370605658E+02 -0.65992782122E+02  0.23946633001E+03  0.25543321889E+03  0.46999998093E+01 0.  1.
       -5    1    3    3    0  502 -0.55656778211E+02 -0.19450890653E+02  0.12871690278E+02  0.60529203835E+02  0.46999998093E+01 0.  1.
</event>
<event>
10   0  0.1583500E-03  0.1925525E+03  0.7818609E-02  0.1165478E+00
        2   -1    0    0  503    0  0.00000000000E+00  0.00000000000E+00  0.14593811520E+04  0.14593811520E+04  0.00000000000E+00 0.  1.
       21   -1    0    0  501  503  0.00000000000E+00  0.00000000000E+00 -0.22339971125E+02  0.22339971125E+02  0.25500000920E-02 0.  1.
       25    2    1    2    0    0 -0.57629621198E+02 -0.71549657589E+02  0.84603254268E+03  0.86013632293E+03  0.12499161574E+03 0.  0.
        6    2    1    2  501    0  0.57629621198E+02  0.71549657589E+02  0.59100863820E+03  0.62158480021E+03  0.16922153137E+03 0.  0.
       24    2    4    4    0    0  0.38338181129E+02 -0.14201220148E+01  0.15020261728E+03  0.17433902161E+03  0.79758606674E+02 0.  0.
      -11    1    5    5    0    0 -0.16600753068E+02 -0.92094695908E+01  0.61284799098E+01  0.19948874625E+02  0.51099999109E-03 0.  1.
       12    1    5    5    0    0  0.54938934197E+02  0.77893475760E+01  0.14407413737E+03  0.15439014698E+03  0.00000000000E+00 0. -1.
        5    1    4    4  501    0  0.19291440068E+02  0.72969779604E+02  0.44080602092E+03  0.44724577860E+03  0.46999998093E+01 0. -1.
        5    1    3    3  502    0 -0.35879733413E+02 -0.18508497404E+02  0.72492349886E+03  0.72606204208E+03  0.46999998093E+01 0.  1.
       -5    1    3    3    0  502 -0.21749887785E+02 -0.53041160185E+02  0.12110904382E+03  0.13407428085E+03  0.46999998093E+01 0.  1.
</event>
<event>
10   0  0.1583500E-03  0.2053825E+03  0.7818609E-02  0.1153706E+00
       21   -1    0    0  501  503  0.00000000000E+00  0.00000000000E+00  0.69704896780E+02  0.69704896780E+02  0.00000000000E+00 0.  1.
       -2   -1    0    0    0  501  0.00000000000E+00  0.00000000000E+00 -0.15314722342E+04  0.15314722343E+04  0.25500000920E-02 0.  1.
       25    2    1    2    0    0 -0.42250255282E+02 -0.10425599655E+03 -0.13629025619E+04  0.13732380708E+04  0.12500003592E+03 0.  0.
       -6    2    1    2    0  503  0.42250255282E+02  0.10425599655E+03 -0.98864775610E+02  0.22793906027E+03  0.17183589396E+03 0.  0.
      -24    2    4    4    0    0 -0.36565332922E+02  0.87329885552E+02 -0.70131337735E+02  0.14222972223E+03  0.79670301052E+02 0.  0.
       15    1    5    5    0    0  0.15755761274E+02  0.59964419746E+02 -0.50571524182E+02  0.80028822531E+02  0.17769999504E+01 0. -1.
      -16    1    5    5    0    0 -0.52321094196E+02  0.27365465806E+02 -0.19559813553E+02  0.62200899695E+02  0.00000000000E+00 0.  1.
       -5    1    4    4    0  503  0.78815588204E+02  0.16926110999E+02 -0.28733437876E+02  0.85709338044E+02  0.46999998093E+01 0.  1.
        5    1    3    3  502    0 -0.45879400834E+02 -0.72459575695E+02 -0.37118126891E+03  0.38098941444E+03  0.46999998093E+01 0. -1.
       -5    1    3    3    0  502  0.36291455521E+01 -0.31796420855E+02 -0.99172129295E+03  0.99224865632E+03  0.46999998093E+01 0. -1.
</event>
<event>
10   0  0.1583500E-03  0.2723895E+03  0.7818609E-02  0.1103850E+00
        2   -1    0    0  503    0  0.00000000000E+00  0.00000000000E+00  0.16393032265E+04  0.16393032265E+04  0.00000000000E+00 0.  1.
       21   -1    0    0  501  503  0.00000000000E+00  0.00000000000E+00 -0.44513728485E+02  0.44513728485E+02  0.25500000920E-02 0.  1.
       25    2    1    2    0    0  0.87571728137E+02  0.19302058171E+03  0.99661641950E+03  0.10265444923E+04  0.12499421755E+03 0.  0.
        6    2    1    2  501    0 -0.87571728137E+02 -0.19302058171E+03  0.59817307854E+03  0.65727246276E+03  0.17108566825E+03 0.  0.
       24    2    4    4    0    0 -0.11866693068E+03 -0.17696322793E+03  0.45654408001E+03  0.51130803746E+03  0.87210020636E+02 0.  0.
      -11    1    5    5    0    0  0.77396343780E+01 -0.38165106126E+02  0.48890276794E+02  0.62503891328E+02  0.51099999109E-03 0.  1.
       12    1    5    5    0    0 -0.12640656505E+03 -0.13879812181E+03  0.40765380322E+03  0.44880414613E+03  0.00000000000E+00 0. -1.
        5    1    4    4  501    0  0.31095202539E+02 -0.16057353779E+02  0.14162899853E+03  0.14596442531E+03  0.46999998093E+01 0. -1.
        5    1    3    3  502    0  0.75775137861E+02  0.33861899771E+02  0.42468310390E+03  0.43274279718E+03  0.46999998093E+01 0. -1.
       -5    1    3    3    0  502  0.11796590276E+02  0.15915868194E+03  0.57193331560E+03  0.59380169507E+03  0.46999998093E+01 0. -1.
</event>
<event>
10   0  0.1583500E-03  0.2137476E+03  0.7818609E-02  0.1146071E+00
        2   -1    0    0  503    0  0.00000000000E+00  0.00000000000E+00  0.83162558123E+03  0.83162558123E+03  0.00000000000E+00 0. -1.
       21   -1    0    0  501  503  0.00000000000E+00  0.00000000000E+00 -0.46654807944E+02  0.46654807944E+02  0.25500000920E-02 0. -1.
       25    2    1    2    0    0  0.25010878834E+02 -0.12533939530E+03  0.39498120780E+03  0.43355588612E+03  0.12500017520E+03 0.  0.
        6    2    1    2  501    0 -0.25010878834E+02  0.12533939530E+03  0.38998956548E+03  0.44472450306E+03  0.17132575509E+03 0.  0.
       24    2    4    4    0    0  0.42162653362E+02  0.29684510864E+02  0.16940058288E+03  0.19503723948E+03  0.81756392914E+02 0.  0.
      -15    1    5    5    0    0 -0.17127432217E+02 -0.90233529239E+01  0.13088696647E+02  0.23435902822E+02  0.17769999504E+01 0.  1.
       16    1    5    5    0    0  0.59290085579E+02  0.38707863788E+02  0.15631188623E+03  0.17160133666E+03  0.00000000000E+00 0. -1.
        5    1    4    4  501    0 -0.67173532195E+02  0.95654884439E+02  0.22058898261E+03  0.24968726357E+03  0.46999998093E+01 0. -1.
        5    1    3    3  502    0 -0.39403401085E+02 -0.99894570572E+01  0.14635081435E+03  0.15196403564E+03  0.46999998093E+01 0.  1.
       -5    1    3    3    0  502  0.64414279919E+02 -0.11534993825E+03  0.24863039345E+03  0.28159185048E+03  0.46999998093E+01 0.  1.
</event>
<event>
10   0  0.1583500E-03  0.1983558E+03  0.7818609E-02  0.1160471E+00
       21   -1    0    0  501  503  0.00000000000E+00  0.00000000000E+00  0.85307427846E+02  0.85307427846E+02  0.00000000000E+00 0. -1.
       -2   -1    0    0    0  501  0.00000000000E+00  0.00000000000E+00 -0.38613323786E+03  0.38613323787E+03  0.25500000920E-02 0.  1.
       25    2    1    2    0    0  0.85435836495E+02  0.49687507838E+02 -0.94641195982E+02  0.18533383174E+03  0.12499417034E+03 0.  0.
       -6    2    1    2    0  503 -0.85435836495E+02 -0.49687507838E+02 -0.20618461403E+03  0.28610683397E+03  0.17197934408E+03 0.  0.
      -24    2    4    4    0    0 -0.57657455366E+02  0.33941063125E+02 -0.14473560913E+03  0.17857336690E+03  0.80396970647E+02 0.  0.
       15    1    5    5    0    0 -0.16653525052E+01  0.28105896393E+02 -0.59875114427E+01  0.28839605288E+02  0.17769999504E+01 0. -1.
      -16    1    5    5    0    0 -0.55992102861E+02  0.58351667313E+01 -0.13874809769E+03  0.14973376161E+03  0.00000000000E+00 0.  1.
       -5    1    4    4    0  503 -0.27778381128E+02 -0.83628570963E+02 -0.61449004900E+02  0.10753346707E+03  0.46999998093E+01 0.  1.
        5    1    3    3  502    0  0.77903658255E+02  0.89137023737E+02 -0.64461070267E+02  0.13487664197E+03  0.46999998093E+01 0. -1.
       -5    1    3    3    0  502  0.75321782397E+01 -0.39449515899E+02 -0.30180125715E+02  0.50457189776E+02  0.46999998093E+01 0. -1.
</event>
<event>
10   0  0.1583500E-03  0.2261712E+03  0.7818609E-02  0.1136024E+00
        2   -1    0    0  503    0  0.00000000000E+00  0.00000000000E+00  0.19553009707E+04  0.19553009707E+04  0.00000000000E+00 0.  1.
       21   -1    0    0  501  503  0.00000000000E+00  0.00000000000E+00 -0.12819180664E+03  0.12819180664E+03  0.25500000920E-02 0.  1.
       25    2    1    2    0    0 -0.14488352283E+03 -0.17955117734E+02  0.18465151160E+04  0.18564905760E+04  0.12500225441E+03 0.  0.
        6    2    1    2  501    0  0.14488352283E+03  0.17955117734E+02 -0.19405951924E+02  0.22700220139E+03  0.17274196661E+03 0.  0.
       24    2    4    4    0    0  0.14686992912E+03  0.64358907575E+02 -0.24846806627E+02  0.18000272885E+03  0.77915168796E+02 0.  0.
      -15    1    5    5    0    0  0.20322658371E+02 -0.10458491197E+02 -0.23721443197E+02  0.32988711366E+02  0.17769999504E+01 0.  1.
       16    1    5    5    0    0  0.12654727075E+03  0.74817398772E+02 -0.11253634294E+01  0.14701401748E+03  0.00000000000E+00 0. -1.
        5    1    4    4  501    0 -0.19864062892E+01 -0.46403789841E+02  0.54408547027E+01  0.46999472547E+02  0.46999998093E+01 0. -1.
        5    1    3    3  502    0 -0.23584580301E+02  0.30801596498E+02  0.15232842510E+03  0.15726096104E+03  0.46999998093E+01 0.  1.
       -5    1    3    3    0  502 -0.12129894253E+03 -0.48756714232E+02  0.16941866909E+04  0.16992296149E+04  0.46999998093E+01 0.  1.
</event>
<event>
10   0  0.1583500E-03  0.2376695E+03  0.7818609E-02  0.1127071E+00
        2   -1    0    0  503    0  0.00000000000E+00  0.00000000000E+00  0.12720668663E+04  0.12720668663E+04  0.00000000000E+00 0. -1.
       21   -1    0    0  501  503  0.00000000000E+00  0.00000000000E+00 -0.43545841593E+02  0.43545841593E+02  0.25500000920E-02 0.  1.
       25    2    1    2    0    0 -0.10341400208E+03  0.12733511227E+03  0.79391451327E+03  0.82026473057E+03  0.12500114876E+03 0.  0.
        6    2    1    2  501    0  0.10341400208E+03 -0.12733511227E+03  0.43460651143E+03  0.49534797732E+03  0.17198288349E+03 0.  0.
       24    2    4    4    0    0  0.53034246053E+02 -0.14007584836E+03  0.39335226560E+03  0.42883144576E+03  0.82076363649E+02 0.  0.
      -11    1    5    5    0    0  0.30524639912E+02 -0.39425388659E+02  0.51177585335E+02  0.71451103236E+02  0.51099999109E-03 0.  1.
       12    1    5    5    0    0  0.22509606142E+02 -0.10065045971E+03  0.34217468027E+03  0.35738034253E+03  0.00000000000E+00 0. -1.
        5    1    4    4  501    0  0.50379756028E+02  0.12740736092E+02  0.41254245831E+02  0.66516531561E+02  0.46999998093E+01 0. -1.
        5    1    3    3  502    0 -0.10520408169E+03  0.42238300658E+02  0.55805718245E+03  0.56947509316E+03  0.46999998093E+01 0. -1.
       -5    1    3    3    0  502  0.17900796125E+01  0.85096811615E+02  0.23585733082E+03  0.25078963741E+03  0.46999998093E+01 0. -1.
</event>
<event>
10   0  0.1583500E-03  0.2652826E+03  0.7818609E-02  0.1109115E+00
       21   -1    0    0  501  503  0.00000000000E+00  0.00000000000E+00  0.24956025993E+02  0.24956025993E+02  0.00000000000E+00 0. -1.
        2   -1    0    0  503    0  0.00000000000E+00  0.00000000000E+00 -0.28262676319E+04  0.28262676319E+04  0.25500000920E-02 0. -1.
       25    2    1    2    0    0  0.19206601817E+03 -0.40702789832E+02 -0.18148796168E+04  0.18297429077E+04  0.12500005029E+03 0.  0.
        6    2    1    2  501    0 -0.19206601817E+03  0.40702789832E+02 -0.98643198915E+03  0.10214807502E+04  0.17840622559E+03 0.  0.
       24    2    4    4    0    0 -0.21262120417E+02  0.45315302312E+02 -0.33677813330E+03  0.34971630547E+03  0.79852544430E+02 0.  0.
      -11    1    5    5    0    0  0.26937212786E+02  0.61066446450E+00 -0.12910049821E+03  0.13188223907E+03  0.51099999109E-03 0.  1.
       12    1    5    5    0    0 -0.48199333203E+02  0.44704637848E+02 -0.20767763509E+03  0.21783406640E+03  0.00000000000E+00 0. -1.
        5    1    4    4  501    0 -0.17080389776E+03 -0.46125124800E+01 -0.64965385585E+03  0.67176444471E+03  0.46999998093E+01 0. -1.
        5    1    3    3  502    0  0.11457426311E+02  0.31868194178E+02 -0.17189767743E+03  0.17526481655E+03  0.46999998093E+01 0.  1.
       -5    1    3    3    0  502  0.18060859186E+03 -0.72570984011E+02 -0.16429819393E+04  0.16544780912E+04  0.46999998093E+01 0.  1.
</event>
<event>
10   0  0.1583500E-03  0.1772155E+03  0.7818609E-02  0.1183825E+00
        2   -1    0    0  503    0  0.00000000000E+00  0.00000000000E+00  0.15486711952E+04  0.15486711952E+04  0.00000000000E+00 0.  1.
       21   -1    0    0  501  503  0.00000000000E+00  0.00000000000E+00 -0.36994270611E+02  0.36994270611E+02  0.25500000920E-02 0.  1.
       25    2    1    2    0    0 -0.30075212347E+02  0.26320440109E+02  0.13125778220E+04  0.13191213062E+04  0.12499279070E+03 0.  0.
        6    2    1    2  501    0  0.30075212347E+02 -0.26320440109E+02  0.19909910261E+03  0.26654415963E+03  0.17265008661E+03 0.  0.
       24    2    4    4    0    0  0.70245211891E+02  0.96814279523E+01  0.73292261988E+02  0.12957987774E+03  0.79944163053E+02 0.  0.
      -15    1    5    5    0    0  0.62363329234E+02 -0.14783409643E+02  0.80473342409E+02  0.10289242247E+03  0.17769999504E+01 0.  1.
       16    1    5    5    0    0  0.78818826572E+01  0.24464837596E+02 -0.71810804211E+01  0.26687455270E+02  0.00000000000E+00 0. -1.
        5    1    4    4  501    0 -0.40169999544E+02 -0.36001868062E+02  0.12580684063E+03  0.13696428189E+03  0.46999998093E+01 0. -1.
        5    1    3    3  502    0  0.39235715090E+02  0.13593874529E+01  0.18746167113E+03  0.19158616186E+03  0.46999998093E+01 0.  1.
       -5    1    3    3    0  502 -0.69310927437E+02  0.24961052657E+02  0.11251161509E+04  0.11275351444E+04  0.46999998093E+01 0.  1.
</event>
<event>
10   0  0.1583500E-03  0.1888448E+03  0.7818609E-02  0.1169465E+00
       21   -1    0    0  501  503  0.00000000000E+00  0.00000000000E+00  0.48880975829E+02  0.48880975829E+02  0.00000000000E+00 0.  1.
       -2   -1    0    0    0  501  0.00000000000E+00  0.00000000000E+00 -0.89102898132E+03  0.89102898132E+03  0.25500000920E-02 0.  1.
       25    2    1    2    0    0 -0.55654092930E+02  0.61590582906E+02 -0.66244999406E+03  0.67923058446E+03  0.12499365692E+03 0.  0.
       -6    2    1    2    0  503  0.55654092930E+02 -0.61590582906E+02 -0.17969801143E+03  0.26067937269E+03  0.16962187970E+03 0.  0.
      -24    2    4    4    0    0  0.20314773747E+02  0.27442074100E+02 -0.53877874850E+02  0.10247545915E+03  0.80203721024E+02 0.  0.
       13    1    5    5    0    0 -0.12493052516E+02  0.36399641347E+02  0.32666995282E+00  0.38485427484E+02  0.10565999895E+00 0. -1.
      -14    1    5    5    0    0  0.32807826262E+02 -0.89575672474E+01 -0.54204544803E+02  0.63990031664E+02  0.00000000000E+00 0.  1.
       -5    1    4    4    0  503  0.35339319183E+02 -0.89032657005E+02 -0.12582013658E+03  0.15820391354E+03  0.46999998093E+01 0.  1.
        5    1    3    3  502    0 -0.66459300524E+02  0.66764407563E+02 -0.65925869195E+03  0.66597179944E+03  0.46999998093E+01 0. -1.
       -5    1    3    3    0  502  0.10805207595E+02 -0.51738246574E+01 -0.31913021111E+01  0.13258785017E+02  0.46999998093E+01 0. -1.
</event>
<event>
10   0  0.1583500E-03  0.1748716E+03  0.7818609E-02  0.1186276E+00
       21   -1    0    0  501  503  0.00000000000E+00  0.00000000000E+00  0.35273283539E+02  0.35273283539E+02  0.00000000000E+00 0.  1.
        2   -1    0    0  503    0  0.00000000000E+00  0.00000000000E+00 -0.96799994990E+03  0.96799994990E+03  0.25500000920E-02 0. -1.
       25    2    1    2    0    0  0.96235879292E+01  0.31714051747E+02 -0.70175395661E+03  0.71356911260E+03  0.12499547318E+03 0.  0.
        6    2    1    2  501    0 -0.96235879292E+01 -0.31714051747E+02 -0.23097270975E+03  0.28970412084E+03  0.17170233097E+03 0.  0.
       24    2    4    4    0    0  0.23349560245E+02  0.13948973264E+02 -0.43189182331E+02  0.93599343944E+02  0.78458625386E+02 0.  0.
      -13    1    5    5    0    0 -0.23183985987E+02 -0.24603309535E+01  0.58456233512E+01  0.24036075201E+02  0.10565999895E+00 0.  1.
       14    1    5    5    0    0  0.46533546232E+02  0.16409304218E+02 -0.49034805682E+02  0.69563268743E+02  0.00000000000E+00 0. -1.
        5    1    4    4  501    0 -0.32973148174E+02 -0.45663025011E+02 -0.18778352741E+03  0.19610477689E+03  0.46999998093E+01 0. -1.
        5    1    3    3  502    0 -0.51195587988E+02  0.16769088331E+02 -0.17717104806E+03  0.18524000870E+03  0.46999998093E+01 0.  1.
       -5    1    3    3    0  502  0.60819175918E+02  0.14944963416E+02 -0.52458290855E+03  0.52832910391E+03  0.46999998093E+01 0.  1.
</event>
<event>
10   0  0.1583500E-03  0.1968616E+03  0.7818609E-02  0.1162211E+00
        4   -1    0    0  503    0  0.00000000000E+00  0.00000000000E+00  0.12999534325E+03  0.13000154679E+03  0.00000000000E+00 0. -1.
       21   -1    0    0  501  503  0.00000000000E+00  0.00000000000E+00 -0.24500398753E+03  0.24500398753E+03  0.12699999809E+01 0.  1.
       25    2    1    2    0    0 -0.87489104234E+02 -0.35075897606E+02 -0.24950413909E+02  0.15852231036E+03  0.12498855057E+03 0.  0.
        6    2    1    2  501    0  0.87489104234E+02  0.35075897606E+02 -0.90058230375E+02  0.21648322396E+03  0.17282893116E+03 0.  0.
       24    2    4    4    0    0  0.53631497395E+02 -0.36864881011E+02 -0.90189408469E+02  0.13683449280E+03  0.79713186214E+02 0.  0.
      -13    1    5    5    0    0  0.98531230659E+00  0.17275380471E+02 -0.46442791884E+02  0.49561615115E+02  0.10565999895E+00 0.  1.
       14    1    5    5    0    0  0.52646185088E+02 -0.54140261482E+02 -0.43746616585E+02  0.87272877690E+02  0.00000000000E+00 0. -1.
        5    1    4    4  501    0  0.33857606839E+02  0.71940778617E+02  0.13117809387E+00  0.79648731157E+02  0.46999998093E+01 0. -1.
        5    1    3    3  502    0  0.31040981883E+01 -0.28936194005E+02  0.37882608551E+02  0.48001258087E+02  0.46999998093E+01 0. -1.
       -5    1    3    3    0  502 -0.90593202422E+02 -0.61397036015E+01 -0.62833022461E+02  0.11052105227E+03  0.46999998093E+01 0. -1.
</event>
<event>
10   0  0.1583500E-03  0.1747907E+03  0.7818609E-02  0.1186203E+00
       21   -1    0    0  501  503  0.00000000000E+00  0.00000000000E+00  0.23794907253E+02  0.23794907253E+02  0.00000000000E+00 0. -1.
        2   -1    0    0  503    0  0.00000000000E+00  0.00000000000E+00 -0.21702738968E+04  0.21702738968E+04  0.25500000920E-02 0. -1.
       25    2    1    2    0    0 -0.30160575420E+02  0.17182094226E+02 -0.18123243777E+04  0.18169599479E+04  0.12497566772E+03 0.  0.
        6    2    1    2  501    0  0.30160575420E+02 -0.17182094226E+02 -0.33415461180E+03  0.37710885612E+03  0.17130936959E+03 0.  0.
       24    2    4    4    0    0 -0.48444585975E+02 -0.72798710235E+01 -0.16794272210E+03  0.19292061628E+03  0.81324853808E+02 0.  0.
      -15    1    5    5    0    0 -0.35874582540E+02  0.20666139898E+02 -0.15359160227E+03  0.15908366675E+03  0.17769999504E+01 0.  1.
       16    1    5    5    0    0 -0.12570003435E+02 -0.27946010922E+02 -0.14351119827E+02  0.33836949524E+02  0.00000000000E+00 0. -1.
        5    1    4    4  501    0  0.78605161396E+02 -0.99022232022E+01 -0.16621188970E+03  0.18418823985E+03  0.46999998093E+01 0. -1.
        5    1    3    3  502    0  0.36102846903E+02 -0.24731451922E+02 -0.39153735289E+03  0.39400336163E+03  0.46999998093E+01 0.  1.
       -5    1    3    3    0  502 -0.66263422323E+02  0.41913546148E+02 -0.14207870248E+04  0.14229565863E+04  0.46999998093E+01 0.  1.
</event>
<event>
10   0  0.1583500E-03  0.2000341E+03  0.7818609E-02  0.1158084E+00
       -2   -1    0    0    0  501  0.00000000000E+00  0.00000000000E+00  0.16099161062E+03  0.16099161064E+03  0.00000000000E+00 0. -1.
       21   -1    0    0  501  503  0.00000000000E+00  0.00000000000E+00 -0.35899882817E+03  0.35899882817E+03  0.25500000920E-02 0.  1.
       25    2    1    2    0    0 -0.10142555251E+03 -0.32704562967E+02  0.75794162357E+02  0.18090220610E+03  0.12499648788E+03 0.  0.
       -6    2    1    2    0  503  0.10142555251E+03  0.32704562967E+02 -0.27380137991E+03  0.33908823271E+03  0.16928349826E+03 0.  0.
      -24    2    4    4    0    0  0.58974301392E+02  0.90088615341E+02 -0.18035514048E+03  0.22140506548E+03  0.69987852393E+02 0.  0.
       15    1    5    5    0    0  0.44136440770E+02  0.58579960994E+02 -0.56090833418E+02  0.92352458312E+02  0.17769999504E+01 0. -1.
      -16    1    5    5    0    0  0.14837860623E+02  0.31508654346E+02 -0.12426430706E+03  0.12905260716E+03  0.00000000000E+00 0.  1.
       -5    1    4    4    0  503  0.42451251121E+02 -0.57384052374E+02 -0.93446239432E+02  0.11768316724E+03  0.46999998093E+01 0.  1.
        5    1    3    3  502    0 -0.12433275387E+03 -0.39684733108E+02  0.38177620141E+02  0.13606297221E+03  0.46999998093E+01 0. -1.
       -5    1    3    3    0  502  0.22907201361E+02  0.69801701411E+01  0.37616542216E+02  0.44839233891E+02  0.46999998093E+01 0. -1.
</event>
<event>
10   0  0.1583500E-03  0.2088393E+03  0.7818609E-02  0.1151186E+00
       21   -1    0    0  501  503  0.00000000000E+00  0.00000000000E+00  0.77798695874E+02  0.77798695874E+02  0.00000000000E+00 0.  1.
       -2   -1    0    0    0  501  0.00000000000E+00  0.00000000000E+00 -0.10830828390E+04  0.10830828390E+04  0.25500000920E-02 0. -1.
       25    2    1    2    0    0  0.21593903955E+02 -0.11279029840E+03 -0.91961998351E+03  0.93515561415E+03  0.12500864169E+03 0.  0.
       -6    2    1    2    0  503 -0.21593903955E+02  0.11279029840E+03 -0.85664159605E+02  0.22572592072E+03  0.17443020078E+03 0.  0.
      -24    2    4    4    0    0 -0.21063275536E+02  0.22072280861E+02  0.20188341135E+02  0.86237992267E+02  0.78093373815E+02 0.  0.
       15    1    5    5    0    0 -0.50523703941E+01 -0.28915198844E+02  0.13571715317E+02  0.32387719219E+02  0.17769999504E+01 0. -1.
      -16    1    5    5    0    0 -0.16010905141E+02  0.50987479705E+02  0.66166258176E+01  0.53850273048E+02  0.00000000000E+00 0.  1.
       -5    1    4    4    0  503 -0.53062841956E+00  0.90718017540E+02 -0.10585250074E+03  0.13948792845E+03  0.46999998093E+01 0.  1.
        5    1    3    3  502    0  0.45309296047E+02 -0.77627389272E+02 -0.84011546060E+03  0.84492308585E+03  0.46999998093E+01 0. -1.
       -5    1    3    3    0  502 -0.23715392092E+02 -0.35162909129E+02 -0.79504522911E+02  0.90232528292E+02  0.46999998093E+01 0.  1.
</event>
<event>
10   0  0.1583500E-03  0.1756477E+03  0.7818609E-02  0.1185297E+00
       21   -1    0    0  501  503  0.00000000000E+00  0.00000000000E+00  0.18328251132E+03  0.18328251132E+03  0.00000000000E+00 0. -1.
       -2   -1    0    0    0  501  0.00000000000E+00  0.00000000000E+00 -0.13181995572E+03  0.13181995574E+03  0.25500000920E-02 0.  1.
       25    2    1    2    0    0  0.37216071578E+02 -0.30866914785E+00 -0.52527505858E+01  0.13052525007E+03  0.12499647297E+03 0.  0.
       -6    2    1    2    0  503 -0.37216071578E+02  0.30866914785E+00  0.56715306187E+02  0.18457721699E+03  0.17165952294E+03 0.  0.
      -24    2    4    4    0    0 -0.82369909229E+01  0.60114160927E+02  0.50867017490E+01  0.10029147231E+03  0.79692813478E+02 0.  0.
       11    1    5    5    0    0  0.13424115944E+02 -0.15420096111E+02  0.72244244869E+01  0.21683601232E+02  0.51099999109E-03 0. -1.
      -12    1    5    5    0    0 -0.21661106867E+02  0.75534257038E+02 -0.21377227379E+01  0.78607871079E+02  0.00000000000E+00 0.  1.
       -5    1    4    4    0  503 -0.28979080655E+02 -0.59805491779E+02  0.51628604438E+02  0.84285744684E+02  0.46999998093E+01 0.  1.
        5    1    3    3  502    0  0.67034654945E+02 -0.41595649051E+02  0.70222367258E+00  0.79034334943E+02  0.46999998093E+01 0. -1.
       -5    1    3    3    0  502 -0.29818583367E+02  0.41286979904E+02 -0.59549742584E+01  0.51490915123E+02  0.46999998093E+01 0. -1.
</event>
<event>
10   0  0.1583500E-03  0.1786703E+03  0.7818609E-02  0.1181966E+00
       21   -1    0    0  501  503  0.00000000000E+00  0.00000000000E+00  0.35658875354E+02  0.35658875354E+02  0.00000000000E+00 0.  1.
        2   -1    0    0  503    0  0.00000000000E+00  0.00000000000E+00 -0.69375092604E+03  0.69375092604E+03  0.25500000920E-02 0.  1.
       25    2    1    2    0    0  0.46508471646E+02 -0.55038408004E+01 -0.32677664698E+03  0.35298851402E+03  0.12499833527E+03 0.  0.
        6    2    1    2  501    0 -0.46508471646E+02  0.55038408004E+01 -0.33131540371E+03  0.37642128738E+03  0.17242319641E+03 0.  0.
       24    2    4    4    0    0 -0.44708329970E+02 -0.60368103524E+02 -0.17671937490E+03  0.20830116461E+03  0.80724810442E+02 0.  0.
      -13    1    5    5    0    0  0.93319362465E+01 -0.39445764042E+02 -0.29633979310E+02  0.50211923173E+02  0.10565999895E+00 0.  1.
       14    1    5    5    0    0 -0.54040266216E+02 -0.20922339482E+02 -0.14708539559E+03  0.15808924143E+03  0.00000000000E+00 0. -1.
        5    1    4    4  501    0 -0.18001416763E+01  0.65871944324E+02 -0.15459602881E+03  0.16812012277E+03  0.46999998093E+01 0. -1.
        5    1    3    3  502    0 -0.17854873938E+02  0.42206175298E+02 -0.17891221291E+03  0.18474801131E+03  0.46999998093E+01 0. -1.
       -5    1    3    3    0  502  0.64363345584E+02 -0.47710016099E+02 -0.14786443407E+03  0.16824050271E+03  0.46999998093E+01 0. -1.
</event>
<event>
10   0  0.1583500E-03  0.2300135E+03  0.7818609E-02  0.1133400E+00
       -2   -1    0    0    0  501  0.00000000000E+00  0.00000000000E+00  0.94529528006E+03  0.94529528006E+03  0.00000000000E+00 0. -1.
       21   -1    0    0  501  503  0.00000000000E+00  0.00000000000E+00 -0.50405354527E+02  0.50405354527E+02  0.25500000920E-02 0.  1.
       25    2    1    2    0    0  0.12515168390E+03 -0.81566329717E+02  0.52676673538E+03  0.56162585633E+03  0.12499759547E+03 0.  0.
       -6    2    1    2    0  503 -0.12515168390E+03  0.81566329717E+02  0.36812319015E+03  0.43407477826E+03  0.17490059995E+03 0.  0.
      -24    2    4    4    0    0 -0.14392946555E+03  0.58152362594E+02  0.36354286657E+03  0.40335201304E+03  0.80200014074E+02 0.  0.
       11    1    5    5    0    0 -0.59537209215E+01  0.31078996529E+02  0.96467752748E+02  0.10152525862E+03  0.51099999109E-03 0. -1.
      -12    1    5    5    0    0 -0.13797574463E+03  0.27073366064E+02  0.26707511382E+03  0.30182675442E+03  0.00000000000E+00 0.  1.
       -5    1    4    4    0  503  0.18777781653E+02  0.23413967123E+02  0.45803235822E+01  0.30722765217E+02  0.46999998093E+01 0.  1.
        5    1    3    3  502    0  0.70641145675E+02 -0.11173626074E+03  0.36204091212E+03  0.38544892719E+03  0.46999998093E+01 0.  1.
       -5    1    3    3    0  502  0.54510538227E+02  0.30169931021E+02  0.16472582326E+03  0.17617692914E+03  0.46999998093E+01 0.  1.
</event>
<event>
10   0  0.1583500E-03  0.2003620E+03  0.7818609E-02  0.1158318E+00
       21   -1    0    0  501  503  0.00000000000E+00  0.00000000000E+00  0.62185665662E+02  0.62185665662E+02  0.00000000000E+00 0. -1.
       -2   -1    0    0    0  501  0.00000000000E+00  0.00000000000E+00 -0.53312419311E+03  0.53312419311E+03  0.25500000920E-02 0.  1.
       25    2    1    2    0    0 -0.46731123056E+02  0.92831496485E+02 -0.18678752382E+03  0.24762216901E+03  0.12500269968E+03 0.  0.
       -6    2    1    2    0  503  0.46731123056E+02 -0.92831496485E+02 -0.28415100363E+03  0.34768768977E+03  0.17129930576E+03 0.  0.
      -24    2    4    4    0    0  0.61609761312E+02 -0.61790786060E+02 -0.28981532671E+03  0.31248720491E+03  0.77726866060E+02 0.  0.
       15    1    5    5    0    0  0.68215317100E+02 -0.74843069468E+02 -0.26480223180E+03  0.28351048346E+03  0.17769999504E+01 0. -1.
      -16    1    5    5    0    0 -0.66055557877E+01  0.13052283408E+02 -0.25013094910E+02  0.28976721457E+02  0.00000000000E+00 0.  1.
       -5    1    4    4    0  503 -0.14878638256E+02 -0.31040710425E+02  0.56643230832E+01  0.35200484858E+02  0.46999998093E+01 0.  1.
        5    1    3    3  502    0 -0.51004715837E+02  0.10876102223E+03 -0.92229698104E+02  0.15152177469E+03  0.46999998093E+01 0.  1.
       -5    1    3    3    0  502  0.42735927807E+01 -0.15929525743E+02 -0.94557825716E+02  0.96100394318E+02  0.46999998093E+01 0.  1.
</event>
<event>
10   0  0.1583500E-03  0.3101530E+03  0.7818609E-02  0.1083167E+00
        2   -1    0    0  503    0  0.00000000000E+00  0.00000000000E+00  0.59007521532E+03  0.59007521532E+03  0.00000000000E+00 0.  1.
       21   -1    0    0  501  503  0.00000000000E+00  0.00000000000E+00 -0.33798701461E+03  0.33798701461E+03  0.25500000920E-02 0.  1.
       25    2    1    2    0    0 -0.11196773967E+03 -0.23277824689E+03  0.46883016040E+03  0.54968154620E+03  0.12500238390E+03 0.  0.
        6    2    1    2  501    0  0.11196773967E+03  0.23277824689E+03 -0.21674195969E+03  0.37838068373E+03  0.17167521015E+03 0.  0.
       24    2    4    4    0    0  0.94726085003E+02  0.15040856876E+03 -0.22014661121E+03  0.29402595546E+03  0.79943500812E+02 0.  0.
      -13    1    5    5    0    0  0.43817687112E+02  0.11709164793E+03 -0.10285650764E+03  0.16189476844E+03  0.10565999895E+00 0.  1.
       14    1    5    5    0    0  0.50908397890E+02  0.33316920822E+02 -0.11729010356E+03  0.13213118702E+03  0.00000000000E+00 0. -1.
        5    1    4    4  501    0  0.17241654672E+02  0.82369678136E+02  0.34046515191E+01  0.84354728275E+02  0.46999998093E+01 0. -1.
        5    1    3    3  502    0 -0.69693945243E+02 -0.26452001441E+02  0.98395983793E+02  0.12353466723E+03  0.46999998093E+01 0. -1.
       -5    1    3    3    0  502 -0.42273794431E+02 -0.20632624545E+03  0.37043417660E+03  0.42614687896E+03  0.46999998093E+01 0. -1.
</event>
<event>
10   0  0.1583500E-03  0.1908052E+03  0.7818609E-02  0.1167978E+00
       21   -1    0    0  501  503  0.00000000000E+00  0.00000000000E+00  0.61627981914E+02  0.61627981914E+02  0.00000000000E+00 0. -1.
        2   -1    0    0  503    0  0.00000000000E+00  0.00000000000E+00 -0.13154780138E+04  0.13154780138E+04  0.25500000920E-02 0.  1.
       25    2    1    2    0    0 -0.76489792207E+02 -0.34417767569E+02 -0.11501213215E+04  0.11599280286E+04  0.12497482287E+03 0.  0.
        6    2    1    2  501    0  0.76489792207E+02  0.34417767569E+02 -0.10372871043E+03  0.21717796715E+03  0.17138072532E+03 0.  0.
       24    2    4    4    0    0  0.35999783187E+02 -0.61281726874E+01 -0.12459301386E+03  0.15601569726E+03  0.86509767082E+02 0.  0.
      -11    1    5    5    0    0 -0.27212775541E+02 -0.13287227688E+02 -0.39791939810E+02  0.50004840230E+02  0.51099999109E-03 0.  1.
       12    1    5    5    0    0  0.63212558728E+02  0.71590550008E+01 -0.84801074048E+02  0.10601085703E+03  0.00000000000E+00 0. -1.
        5    1    4    4  501    0  0.40490009020E+02  0.40545940257E+02  0.20864303428E+02  0.61162269885E+02  0.46999998093E+01 0. -1.
        5    1    3    3  502    0 -0.62002433773E+02 -0.36685083716E+02 -0.26458754650E+03  0.27426038161E+03  0.46999998093E+01 0. -1.
       -5    1    3    3    0  502 -0.14487358434E+02  0.22673161468E+01 -0.88553377497E+03  0.88566764697E+03  0.46999998093E+01 0. -1.
</event>
<event>
10   0  0.1583500E-03  0.1976817E+03  0.7818609E-02  0.1160985E+00
        4   -1    0    0  503    0  0.00000000000E+00  0.00000000000E+00  0.30295419554E+03  0.30295685749E+03  0.00000000000E+00 0.  1.
       21   -1    0    0  501  503  0.00000000000E+00  0.00000000000E+00 -0.11038902453E+03  0.11038902453E+03  0.12699999809E+01 0.  1.
       25    2    1    2    0    0  0.91367227175E+02 -0.36474705058E+02  0.13167499152E+03  0.20649887000E+03  0.12500042242E+03 0.  0.
        6    2    1    2  501    0 -0.91367227175E+02  0.36474705058E+02  0.60890179490E+02  0.20684701202E+03  0.17146340167E+03 0.  0.
       24    2    4    4    0    0 -0.16771394710E+01 -0.38010053324E+01 -0.16148350321E+02  0.81853133155E+02  0.80136793990E+02 0.  0.
      -13    1    5    5    0    0 -0.21744135180E+02  0.27293733752E+02 -0.26045819212E+02  0.43544818053E+02  0.10565999895E+00 0.  1.
       14    1    5    5    0    0  0.20066995709E+02 -0.31094739084E+02  0.98974688910E+01  0.38308315102E+02  0.00000000000E+00 0. -1.
        5    1    4    4  501    0 -0.89690087704E+02  0.40275710390E+02  0.77038529811E+02  0.12499387886E+03  0.46999998093E+01 0. -1.
        5    1    3    3  502    0 -0.25693303805E+02 -0.32514534851E+02  0.38455291987E+02  0.56729536548E+02  0.46999998093E+01 0.  1.
       -5    1    3    3    0  502  0.11706053098E+03 -0.39601702070E+01  0.93219699538E+02  0.14976933345E+03  0.46999998093E+01 0.  1.
</event>
<event>
10   0  0.1583500E-03  0.1732016E+03  0.7818609E-02  0.1187687E+00
       21   -1    0    0  501  503  0.00000000000E+00  0.00000000000E+00  0.11889950674E+03  0.11889950674E+03  0.00000000000E+00 0.  1.
       -2   -1    0    0    0  501  0.00000000000E+00  0.00000000000E+00 -0.20034913142E+03  0.20034913143E+03  0.25500000920E-02 0.  1.
       25    2    1    2    0    0  0.21703184925E+02 -0.23290184444E+02 -0.67250664753E+02  0.14546603423E+03  0.12499701707E+03 0.  0.
       -6    2    1    2    0  503 -0.21703184925E+02  0.23290184444E+02 -0.14198959929E+02  0.17378260394E+03  0.17025076224E+03 0.  0.
      -24    2    4    4    0    0  0.27265647090E+02 -0.34988643813E+02 -0.11597254174E+02  0.97472531195E+02  0.86016145729E+02 0.  0.
       11    1    5    5    0    0 -0.21237057892E+02 -0.37252278045E+02 -0.21420844815E+02  0.47933260272E+02  0.51099999109E-03 0. -1.
      -12    1    5    5    0    0  0.48502704982E+02  0.22636342319E+01  0.98235906411E+01  0.49539270923E+02  0.00000000000E+00 0.  1.
       -5    1    4    4    0  503 -0.48968832015E+02  0.58278828257E+02 -0.26017057545E+01  0.76310072749E+02  0.46999998093E+01 0.  1.
        5    1    3    3  502    0 -0.50188172336E+02 -0.25454532503E+02 -0.23613579876E+02  0.61208471800E+02  0.46999998093E+01 0.  1.
       -5    1    3    3    0  502  0.71891357260E+02  0.21643480589E+01 -0.43637084877E+02  0.84257562426E+02  0.46999998093E+01 0.  1.
</event>
<event>
10   0  0.1583500E-03  0.1722881E+03  0.7818609E-02  0.1189127E+00
        2   -1    0    0  503    0  0.00000000000E+00  0.00000000000E+00  0.45676131962E+03  0.45676131962E+03  0.00000000000E+00 0.  1.
       21   -1    0    0  501  503  0.00000000000E+00  0.00000000000E+00 -0.87781821210E+02  0.87781821210E+02  0.25500000920E-02 0.  1.
       25    2    1    2    0    0 -0.19482303837E+02  0.10322577403E+02  0.34867674730E+03  0.37106292402E+03  0.12500441473E+03 0.  0.
        6    2    1    2  501    0  0.19482303837E+02 -0.10322577403E+02  0.20302751103E+02  0.17348021682E+03  0.17087149603E+03 0.  0.
       24    2    4    4    0    0  0.59947586749E+02  0.40382854279E+02  0.10851576068E+02  0.10775431149E+03  0.79175418311E+02 0.  0.
      -11    1    5    5    0    0  0.43295024004E+02  0.32628973202E+02 -0.30714892634E+02  0.62309819655E+02  0.51099999109E-03 0.  1.
       12    1    5    5    0    0  0.16652562744E+02  0.77538810772E+01  0.41566468702E+02  0.45444491834E+02  0.00000000000E+00 0. -1.
        5    1    4    4  501    0 -0.40465282912E+02 -0.50705431682E+02  0.94511750345E+01  0.65725905326E+02  0.46999998093E+01 0. -1.
        5    1    3    3  502    0 -0.17995101002E+02 -0.55607456757E+02  0.13003064428E+03  0.14263965563E+03  0.46999998093E+01 0.  1.
       -5    1    3    3    0  502 -0.14872028350E+01  0.65930034160E+02  0.21864610302E+03  0.22842326839E+03  0.46999998093E+01 0.  1.
</event>
<event>
10   0  0.1583500E-03  0.2065601E+03  0.7818609E-02  0.1152380E+00
       -4   -1    0    0    0  501  0.00000000000E+00  0.00000000000E+00  0.37376302009E+03  0.37376517773E+03  0.00000000000E+00 0.  1.
       21   -1    0    0  501  503  0.00000000000E+00  0.00000000000E+00 -0.96146863580E+02  0.96146863580E+02  0.12699999809E+01 0.  1.
       25    2    1    2    0    0  0.11415474522E+03 -0.20812730942E+02  0.14984985538E+03  0.22703081295E+03  0.12499414084E+03 0.  0.
       -6    2    1    2    0  503 -0.11415474522E+03  0.20812730942E+02  0.12776630112E+03  0.24288122836E+03  0.17088764660E+03 0.  0.
      -24    2    4    4    0    0 -0.42535166973E+02  0.56636680223E+02  0.18910617028E+02  0.10766152089E+03  0.78844388938E+02 0.  0.
       13    1    5    5    0    0 -0.41479620830E+02  0.65958583374E+02  0.37776366289E+02  0.86591908854E+02  0.10565999895E+00 0. -1.
      -14    1    5    5    0    0 -0.10555461429E+01 -0.93219031507E+01 -0.18865749261E+02  0.21069612032E+02  0.00000000000E+00 0.  1.
       -5    1    4    4    0  503 -0.71619578251E+02 -0.35823949281E+02  0.10885568409E+03  0.13521970747E+03  0.46999998093E+01 0.  1.
        5    1    3    3  502    0  0.42636998196E+02  0.50122240310E+02  0.36797894306E+02  0.75540238366E+02  0.46999998093E+01 0.  1.
       -5    1    3    3    0  502  0.71517747028E+02 -0.70934971252E+02  0.11305196108E+03  0.15149057459E+03  0.46999998093E+01 0.  1.
</event>
<event>
10   0  0.1583500E-03  0.3088897E+03  0.7818609E-02  0.1083951E+00
       21   -1    0    0  501  503  0.00000000000E+00  0.00000000000E+00  0.33988562740E+03  0.33988562740E+03  0.00000000000E+00 0.  1.
       -2   -1    0    0    0  501  0.00000000000E+00  0.00000000000E+00 -0.27109777134E+03  0.27109777135E+03  0.25500000920E-02 0. -1.
       25    2    1    2    0    0 -0.15946287873E+03 -0.19966959814E+03 -0.31545849279E+02  0.28620699585E+03  0.12499178276E+03 0.  0.
       -6    2    1    2    0  503  0.15946287873E+03  0.19966959814E+03  0.10033370534E+03  0.32477640289E+03  0.17354106527E+03 0.  0.
      -24    2    4    4    0    0  0.17182515850E+02  0.48921090497E+02  0.49497475664E+00  0.94648880984E+02  0.79181145011E+02 0.  0.
       15    1    5    5    0    0 -0.36547710555E+01  0.66958413111E+02 -0.14354196210E+00  0.67081776743E+02  0.17769999504E+01 0. -1.
      -16    1    5    5    0    0  0.20837286906E+02 -0.18037322614E+02  0.63851671873E+00  0.27567104242E+02  0.00000000000E+00 0.  1.
       -5    1    4    4    0  503  0.14228036288E+03  0.15074850764E+03  0.99838730587E+02  0.23012752191E+03  0.46999998093E+01 0.  1.
        5    1    3    3  502    0 -0.11891698941E+03 -0.10073758318E+03  0.35509636558E+02  0.15991352451E+03  0.46999998093E+01 0.  1.
       -5    1    3    3    0  502 -0.40545889313E+02 -0.98932014963E+02 -0.67055485837E+02  0.12629347134E+03  0.46999998093E+01 0.  1.
</event>
<event>
10   0  0.1583500E-03  0.1970423E+03  0.7818609E-02  0.1161989E+00
        2   -1    0    0  503    0  0.00000000000E+00  0.00000000000E+00  0.21581665696E+04  0.21581665696E+04  0.00000000000E+00 0.  1.
       21   -1    0    0  501  503  0.00000000000E+00  0.00000000000E+00 -0.32133809544E+02  0.32133809544E+02  0.25500000920E-02 0.  1.
       25    2    1    2    0    0 -0.69652193193E+02  0.64409760674E+02  0.18171973831E+04  0.18239604395E+04  0.12500124090E+03 0.  0.
        6    2    1    2  501    0  0.69652193193E+02 -0.64409760674E+02  0.30883537696E+03  0.36633993970E+03  0.17270094404E+03 0.  0.
       24    2    4    4    0    0  0.61219589796E+02 -0.10987881634E+03  0.22495588030E+03  0.27044205766E+03  0.81930250888E+02 0.  0.
      -15    1    5    5    0    0  0.32712563691E+02 -0.46431478551E+02  0.17714864562E+03  0.18603976563E+03  0.17769999504E+01 0.  1.
       16    1    5    5    0    0  0.28507026104E+02 -0.63447337793E+02  0.47807234682E+02  0.84402292020E+02  0.00000000000E+00 0. -1.
        5    1    4    4  501    0  0.84326033977E+01  0.45469055670E+02  0.83879496657E+02  0.95897882048E+02  0.46999998093E+01 0. -1.
        5    1    3    3  502    0 -0.27252872190E+02  0.42906134480E+02  0.21224549809E+03  0.21829772532E+03  0.46999998093E+01 0.  1.
       -5    1    3    3    0  502 -0.42399321004E+02  0.21503626194E+02  0.16049518850E+04  0.16056627142E+04  0.46999998093E+01 0.  1.
</event>
<event>
10   0  0.1583500E-03  0.2277840E+03  0.7818609E-02  0.1134733E+00
        2   -1    0    0  503    0  0.00000000000E+00  0.00000000000E+00  0.14673776567E+04  0.14673776567E+04  0.00000000000E+00 0.  1.
       21   -1    0    0  501  503  0.00000000000E+00  0.00000000000E+00 -0.49677155259E+02  0.49677155259E+02  0.25500000920E-02 0.  1.
       25    2    1    2    0    0  0.72637282087E+02 -0.12958364943E+03  0.11467921294E+04  0.11631100542E+04  0.12499885301E+03 0.  0.
        6    2    1    2  501    0 -0.72637282087E+02  0.12958364943E+03  0.27090837201E+03  0.35394475770E+03  0.17267729593E+03 0.  0.
       24    2    4    4    0    0 -0.79023102339E+02  0.15937192964E+03  0.22365350191E+03  0.29752460984E+03  0.82800615233E+02 0.  0.
      -11    1    5    5    0    0 -0.57806931106E+02  0.65180029647E+02  0.54524601990E+02  0.10277650398E+03  0.51099999109E-03 0.  1.
       12    1    5    5    0    0 -0.21216171233E+02  0.94191899991E+02  0.16912889992E+03  0.19474810585E+03  0.00000000000E+00 0. -1.
        5    1    4    4  501    0  0.63858202519E+01 -0.29788280211E+02  0.47254870098E+02  0.56420147859E+02  0.46999998093E+01 0. -1.
        5    1    3    3  502    0  0.62605472428E+01 -0.88252474822E+02  0.30294905232E+03  0.31563889504E+03  0.46999998093E+01 0.  1.
       -5    1    3    3    0  502  0.66376734845E+02 -0.41331174605E+02  0.84384307708E+03  0.84747115919E+03  0.46999998093E+01 0.  1.
</event>
<event>
10   0  0.1583500E-03  0.1703309E+03  0.7818609E-02  0.1191178E+00
       21   -1    0    0  501  503  0.00000000000E+00  0.00000000000E+00  0.18045483790E+03  0.18045483790E+03  0.00000000000E+00 0. -1.
        2   -1    0    0  503    0  0.00000000000E+00  0.00000000000E+00 -0.21968835294E+03  0.21968835295E+03  0.25500000920E-02 0. -1.
       25    2    1    2    0    0 -0.10858093976E+02  0.43324267436E+01 -0.15103451087E+03  0.19639804667E+03  0.12499640450E+03 0.  0.
        6    2    1    2  501    0  0.10858093976E+02 -0.43324267436E+01  0.11180099583E+03  0.20374514418E+03  0.16992925875E+03 0.  0.
       24    2    4    4    0    0  0.33677285166E+02 -0.43649322585E+02  0.36690525928E+02  0.11582355142E+03  0.95023562725E+02 0.  0.
      -11    1    5    5    0    0 -0.33319019146E+02 -0.94234821214E+01  0.11657976396E+02  0.36535838105E+02  0.51099999109E-03 0.  1.
       12    1    5    5    0    0  0.66996304313E+02 -0.34225840464E+02  0.25032549533E+02  0.79287713317E+02  0.00000000000E+00 0. -1.
        5    1    4    4  501    0 -0.22819191190E+02  0.39316895841E+02  0.75110469905E+02  0.87921592756E+02  0.46999998093E+01 0. -1.
        5    1    3    3  502    0  0.34914128993E+02  0.30647322187E+02 -0.13210280373E+03  0.14011243882E+03  0.46999998093E+01 0. -1.
       -5    1    3    3    0  502 -0.45772222969E+02 -0.26314895444E+02 -0.18931707136E+02  0.56285607850E+02  0.46999998093E+01 0. -1.
</event>
<event>
10   0  0.1583500E-03  0.2128329E+03  0.7818609E-02  0.1147502E+00
       21   -1    0    0  501  503  0.00000000000E+00  0.00000000000E+00  0.33241806654E+02  0.33241806654E+02  0.00000000000E+00 0.  1.
        2   -1    0    0  503    0  0.00000000000E+00  0.00000000000E+00 -0.11313150941E+04  0.11313150941E+04  0.25500000920E-02 0.  1.
       25    2    1    2    0    0 -0.12066394542E+03  0.21136752227E+02 -0.49431278683E+03  0.52438146458E+03  0.12499695654E+03 0.  0.
        6    2    1    2  501    0  0.12066394542E+03 -0.21136752227E+02 -0.60376050056E+03  0.64017543613E+03  0.17404395125E+03 0.  0.
       24    2    4    4    0    0  0.84409773236E+02 -0.63372658804E+01 -0.18215118164E+03  0.21672544192E+03  0.81398362675E+02 0.  0.
      -11    1    5    5    0    0  0.93813199152E+02 -0.24263402724E+02 -0.15616066289E+03  0.18378188616E+03  0.51099999109E-03 0.  1.
       12    1    5    5    0    0 -0.94034259162E+01  0.17926136844E+02 -0.25990518754E+02  0.32943555761E+02  0.00000000000E+00 0. -1.
        5    1    4    4  501    0  0.36254172183E+02 -0.14799486346E+02 -0.42160931892E+03  0.42344999421E+03  0.46999998093E+01 0. -1.
        5    1    3    3  502    0 -0.71432807550E+02 -0.49056546348E+02 -0.29141835040E+03  0.30406567659E+03  0.46999998093E+01 0. -1.
       -5    1    3    3    0  502 -0.49231137868E+02  0.70193298574E+02 -0.20289443644E+03  0.22031578799E+03  0.46999998093E+01 0. -1.
</event>
<event>
10   0  0.1583500E-03  0.2935596E+03  0.7818609E-02  0.1091831E+00
        4   -1    0    0  503    0  0.00000000000E+00  0.00000000000E+00  0.16770760078E+04  0.16770764887E+04  0.00000000000E+00 0.  1.
       21   -1    0    0  501  503  0.00000000000E+00  0.00000000000E+00 -0.23702710687E+03  0.23702710687E+03  0.12699999809E+01 0. -1.
       25    2    1    2    0    0  0.21674047213E+03  0.98429921924E+02  0.15701530391E+04  0.15930049679E+04  0.12497751669E+03 0.  0.
        6    2    1    2  501    0 -0.21674047213E+03 -0.98429921924E+02 -0.13010413821E+03  0.32109862762E+03  0.17179161823E+03 0.  0.
       24    2    4    4    0    0 -0.50495130285E+02 -0.40782226321E+02 -0.78831479584E+02  0.13776356274E+03  0.92474044361E+02 0.  0.
      -13    1    5    5    0    0 -0.37764747423E+02  0.15568256446E+02 -0.10326354500E+01  0.40861035923E+02  0.10565999895E+00 0.  1.
       14    1    5    5    0    0 -0.12730382862E+02 -0.56350482767E+02 -0.77798844134E+02  0.96902526822E+02  0.00000000000E+00 0. -1.
        5    1    4    4  501    0 -0.16624534185E+03 -0.57647695602E+02 -0.51272658626E+02  0.18333506488E+03  0.46999998093E+01 0. -1.
        5    1    3    3  502    0  0.27459857271E+02 -0.29177035857E+02  0.21514477200E+03  0.21889428065E+03  0.46999998093E+01 0. -1.
       -5    1    3    3    0  502  0.18928061486E+03  0.12760695778E+03  0.13550082671E+04  0.13741106872E+04  0.46999998093E+01 0. -1.
</event>
<event>
10   0  0.1583500E-03  0.1941325E+03  0.7818609E-02  0.1164383E+00
        2   -1    0    0  503    0  0.00000000000E+00  0.00000000000E+00  0.80268402680E+03  0.80268402680E+03  0.00000000000E+00 0. -1.
       21   -1    0    0  501  503  0.00000000000E+00  0.00000000000E+00 -0.40061591587E+02  0.40061591587E+02  0.25500000920E-02 0. -1.
       25    2    1    2    0    0  0.50808742719E+02  0.76765536533E+02  0.24638368341E+03  0.29121150198E+03  0.12499897399E+03 0.  0.
        6    2    1    2  501    0 -0.50808742719E+02 -0.76765536533E+02  0.51623875180E+03  0.55153411641E+03  0.17091798257E+03 0.  0.
       24    2    4    4    0    0 -0.10235035314E+02  0.11376530462E+02  0.12413503266E+03  0.14757537313E+03  0.78324983424E+02 0.  0.
      -11    1    5    5    0    0  0.17521766997E+02  0.27091147570E+02  0.10617762533E+03  0.11097130583E+03  0.51099999109E-03 0.  1.
       12    1    5    5    0    0 -0.27756802311E+02 -0.15714617109E+02  0.17957407327E+02  0.36604067306E+02  0.00000000000E+00 0. -1.
        5    1    4    4  501    0 -0.40573707405E+02 -0.88142066995E+02  0.39210371915E+03  0.40395874328E+03  0.46999998093E+01 0. -1.
        5    1    3    3  502    0 -0.88164104160E+01  0.56601030386E+02  0.21134356978E+03  0.21901963432E+03  0.46999998093E+01 0. -1.
       -5    1    3    3    0  502  0.59625153135E+02  0.20164506147E+02  0.35040113631E+02  0.72191867658E+02  0.46999998093E+01 0. -1.
</event>
<event>
10   0  0.1583500E-03  0.2101213E+03  0.7818609E-02  0.1149367E+00
       21   -1    0    0  501  503  0.00000000000E+00  0.00000000000E+00  0.22623968420E+02  0.22623968420E+02  0.00000000000E+00 0.  1.
        2   -1    0    0  503    0  0.00000000000E+00  0.00000000000E+00 -0.28370731023E+04  0.28370731023E+04  0.25500000920E-02 0. -1.
       25    2    1    2    0    0  0.11602771496E+03  0.34455620571E+02 -0.22612900481E+04  0.22679742116E+04  0.12499888965E+03 0.  0.
        6    2    1    2  501    0 -0.11602771496E+03 -0.34455620571E+02 -0.55315908580E+03  0.59172285915E+03  0.17175956277E+03 0.  0.
       24    2    4    4    0    0 -0.66926492531E+02  0.17701308426E+02 -0.16001029834E+03  0.19207384517E+03  0.80601331891E+02 0.  0.
      -15    1    5    5    0    0 -0.59515191675E+02 -0.64640282376E+01 -0.46611640847E+02  0.75892321696E+02  0.17769999504E+01 0.  1.
       16    1    5    5    0    0 -0.74113008553E+01  0.24165336663E+02 -0.11339865749E+03  0.11618152348E+03  0.00000000000E+00 0. -1.
        5    1    4    4  501    0 -0.49101222426E+02 -0.52156928996E+02 -0.39314878746E+03  0.39964901397E+03  0.46999998093E+01 0. -1.
        5    1    3    3  502    0  0.65353746767E+02  0.20838558172E+02 -0.39490958776E+03  0.40085038384E+03  0.46999998093E+01 0. -1.
       -5    1    3    3    0  502  0.50673968190E+02  0.13617062399E+02 -0.18663804603E+04  0.18671238278E+04  0.46999998093E+01 0. -1.
</event>
<event>
10   0  0.1583500E-03  0.1739281E+03  0.7818609E-02  0.1188426E+00
       21   -1    0    0  501  503  0.00000000000E+00  0.00000000000E+00  0.16407372423E+03  0.16407372423E+03  0.00000000000E+00 0.  1.
       -2   -1    0    0    0  501  0.00000000000E+00  0.00000000000E+00 -0.15442477242E+03  0.15442477244E+03  0.25500000920E-02 0.  1.
       25    2    1    2    0    0 -0.84797188180E+01  0.20994728882E+01 -0.49585487518E+02  0.13476034860E+03  0.12500127025E+03 0.  0.
       -6    2    1    2    0  503  0.84797188180E+01 -0.20994728882E+01  0.59234439327E+02  0.18373814807E+03  0.17370859171E+03 0.  0.
      -24    2    4    4    0    0 -0.50923330962E+02  0.19156988322E+02 -0.15263769074E+01  0.96019699301E+02  0.79102951838E+02 0.  0.
       13    1    5    5    0    0 -0.44288946825E+02  0.47447031452E+02  0.80999604290E+01  0.65409113490E+02  0.10565999895E+00 0. -1.
      -14    1    5    5    0    0 -0.66343841373E+01 -0.28290043130E+02 -0.96263373364E+01  0.30610585811E+02  0.00000000000E+00 0.  1.
       -5    1    4    4    0  503  0.59403049780E+02 -0.21256461211E+02  0.60760816235E+02  0.87718448767E+02  0.46999998093E+01 0.  1.
        5    1    3    3  502    0  0.24377472775E+02 -0.39111469100E+02  0.17321091897E+02  0.49457844846E+02  0.46999998093E+01 0.  1.
       -5    1    3    3    0  502 -0.32857191593E+02  0.41210941988E+02 -0.66906579416E+02  0.85302503751E+02  0.46999998093E+01 0.  1.
</event>
<event>
10   0  0.1583500E-03  0.3655087E+03  0.7818609E-02  0.1058431E+00
        2   -1    0    0  503    0  0.00000000000E+00  0.00000000000E+00  0.21702595130E+04  0.21702595130E+04  0.00000000000E+00 0.  1.
       21   -1    0    0  501  503  0.00000000000E+00  0.00000000000E+00 -0.14205614428E+03  0.14205614428E+03  0.25500000920E-02 0. -1.
       25    2    1    2    0    0 -0.31300492112E+03  0.75789978380E+02  0.18903810311E+04  0.19216858766E+04  0.12497985616E+03 0.  0.
        6    2    1    2  501    0  0.31300492112E+03 -0.75789978380E+02  0.13782233768E+03  0.39062978065E+03  0.17285955946E+03 0.  0.
       24    2    4    4    0    0  0.15686177316E+03  0.62819834289E+01  0.16515190813E+02  0.17649430146E+03  0.78945599778E+02 0.  0.
      -11    1    5    5    0    0  0.77058747482E+00 -0.17524771426E+02  0.46792649842E+01  0.18155080271E+02  0.51099999109E-03 0.  1.
       12    1    5    5    0    0  0.15609118569E+03  0.23806754855E+02  0.11835925829E+02  0.15833922119E+03  0.00000000000E+00 0. -1.
        5    1    4    4  501    0  0.15614314795E+03 -0.82071961809E+02  0.12130714686E+03  0.21413547919E+03  0.46999998093E+01 0. -1.
        5    1    3    3  502    0 -0.16151683410E+03  0.10264015059E+03  0.10246373623E+04  0.10423658199E+04  0.46999998093E+01 0.  1.
       -5    1    3    3    0  502 -0.15148808701E+03 -0.26850172214E+02  0.86574366876E+03  0.87932005678E+03  0.46999998093E+01 0.  1.
</event>
<event>
10   0  0.1583500E-03  0.2007842E+03  0.7818609E-02  0.1157918E+00
        2   -1    0    0  503    0  0.00000000000E+00  0.00000000000E+00  0.34651485145E+04  0.34651485145E+04  0.00000000000E+00 0. -1.
       21   -1    0    0  501  503  0.00000000000E+00  0.00000000000E+00 -0.16103221180E+02  0.16103221180E+02  0.25500000920E-02 0. -1.
       25    2    1    2    0    0  0.93683615359E+02 -0.46759409824E+02  0.27252405860E+04  0.27301142350E+04  0.12499769050E+03 0.  0.
        6    2    1    2  501    0 -0.93683615359E+02  0.46759409824E+02  0.72380470732E+03  0.75113750063E+03  0.17132200187E+03 0.  0.
       24    2    4    4    0    0  0.11450366372E+02  0.48134849228E+02  0.32459556255E+03  0.33828755548E+03  0.81413244404E+02 0.  0.
      -13    1    5    5    0    0  0.14208762748E+02  0.40267661294E+02  0.60451403326E+02  0.74011869407E+02  0.10565999895E+00 0.  1.
       14    1    5    5    0    0 -0.27583963762E+01  0.78671879335E+01  0.26414415923E+03  0.26427568608E+03  0.00000000000E+00 0. -1.
        5    1    4    4  501    0 -0.10513398173E+03 -0.13754394038E+01  0.39920914477E+03  0.41284994515E+03  0.46999998093E+01 0. -1.
        5    1    3    3  502    0 -0.27830411446E+02 -0.27842135027E+02  0.59090214897E+03  0.59223066110E+03  0.46999998093E+01 0. -1.
       -5    1    3    3    0  502  0.12151402680E+03 -0.18917274797E+02  0.21343384370E+04  0.21378835739E+04  0.46999998093E+01 0. -1.
</event>
<event>
10   0  0.1583500E-03  0.2830263E+03  0.7818609E-02  0.1097736E+00
        2   -1    0    0  503    0  0.00000000000E+00  0.00000000000E+00  0.77533571714E+03  0.77533571714E+03  0.00000000000E+00 0.  1.
       21   -1    0    0  501  503  0.00000000000E+00  0.00000000000E+00 -0.99581181828E+02  0.99581181828E+02  0.25500000920E-02 0. -1.
       25    2    1    2    0    0  0.34667888076E+02 -0.22186994352E+03  0.42562748619E+03  0.49720345665E+03  0.12499754399E+03 0.  0.
        6    2    1    2  501    0 -0.34667888076E+02  0.22186994352E+03  0.25012704912E+03  0.37771344232E+03  0.17226656526E+03 0.  0.
       24    2    4    4    0    0  0.22003738350E+02  0.44726299402E+02  0.10940512850E+03  0.14444044167E+03  0.80055934735E+02 0.  0.
      -13    1    5    5    0    0 -0.22074930151E+02  0.35412161014E+02  0.81179742537E+02  0.91276971090E+02  0.10565999895E+00 0.  1.
       14    1    5    5    0    0  0.44078668502E+02  0.93141383875E+01  0.28225385966E+02  0.53163470577E+02  0.00000000000E+00 0. -1.
        5    1    4    4  501    0 -0.56671626426E+02  0.17714364412E+03  0.14072192062E+03  0.23327300065E+03  0.46999998093E+01 0. -1.
        5    1    3    3  502    0  0.74926367270E+02 -0.18744041309E+03  0.35972936630E+03  0.41252293991E+03  0.46999998093E+01 0.  1.
       -5    1    3    3    0  502 -0.40258479194E+02 -0.34429530432E+02  0.65898119882E+02  0.84680516737E+02  0.46999998093E+01 0.  1.
</event>
<event>
10   0  0.1583500E-03  0.2137215E+03  0.7818609E-02  0.1146021E+00
        2   -1    0    0  503    0  0.00000000000E+00  0.00000000000E+00  0.25197265414E+03  0.25197265415E+03  0.00000000000E+00 0. -1.
       21   -1    0    0  501  503  0.00000000000E+00  0.00000000000E+00 -0.17987934962E+03  0.17987934962E+03  0.25500000920E-02 0.  1.
       25    2    1    2    0    0  0.10018252969E+03  0.79975475384E+02  0.11643225718E+03  0.21357967392E+03  0.12500876242E+03 0.  0.
        6    2    1    2  501    0 -0.10018252969E+03 -0.79975475384E+02 -0.44338952668E+02  0.21827232985E+03  0.17100950657E+03 0.  0.
       24    2    4    4    0    0 -0.11015668118E+03 -0.74889908210E+01 -0.91681432776E+01  0.13695289814E+03  0.80507528008E+02 0.  0.
      -13    1    5    5    0    0 -0.21412888687E+01 -0.19332333314E+02 -0.19819286131E+02  0.27769398556E+02  0.10565999895E+00 0.  1.
       14    1    5    5    0    0 -0.10801539231E+03  0.11843342493E+02  0.10651142853E+02  0.10918349959E+03  0.00000000000E+00 0. -1.
        5    1    4    4  501    0  0.99741514947E+01 -0.72486484563E+02 -0.35170809390E+02  0.81319431711E+02  0.46999998093E+01 0. -1.
        5    1    3    3  502    0 -0.11618494679E+02  0.24903018561E+02 -0.15607790929E+02  0.31950632043E+02  0.46999998093E+01 0.  1.
       -5    1    3    3    0  502  0.11180102436E+03  0.55072456823E+02  0.13204004811E+03  0.18162904188E+03  0.46999998093E+01 0.  1.
</event>
<event>
10   0  0.1583500E-03  0.1924293E+03  0.7818609E-02  0.1166620E+00
       21   -1    0    0  501  503  0.00000000000E+00  0.00000000000E+00  0.15921836209E+02  0.15921836209E+02  0.00000000000E+00 0.  1.
        2   -1    0    0  503    0  0.00000000000E+00  0.00000000000E+00 -0.23110757391E+04  0.23110757391E+04  0.25500000920E-02 0. -1.
       25    2    1    2    0    0  0.67488779475E+02 -0.52323713833E+02 -0.15508403862E+04  0.15582117471E+04  0.12500175653E+03 0.  0.
        6    2    1    2  501    0 -0.67488779475E+02  0.52323713833E+02 -0.74431351668E+03  0.76878582814E+03  0.17244283705E+03 0.  0.
       24    2    4    4    0    0 -0.39671904716E+02 -0.36516850462E+02 -0.45128707219E+03  0.46129109394E+03  0.78880361556E+02 0.  0.
      -13    1    5    5    0    0 -0.44824539645E+02 -0.44560949221E+02 -0.19842057030E+03  0.20824421105E+03  0.10565999895E+00 0.  1.
       14    1    5    5    0    0  0.51526349285E+01  0.80440987591E+01 -0.25286650188E+03  0.25304688290E+03  0.00000000000E+00 0. -1.
        5    1    4    4  501    0 -0.27816874759E+02  0.88840564295E+02 -0.29302644450E+03  0.30749473420E+03  0.46999998093E+01 0. -1.
        5    1    3    3  502    0  0.73330785652E+02 -0.87953517132E+02 -0.12214272613E+04  0.12267925130E+04  0.46999998093E+01 0. -1.
       -5    1    3    3    0  502 -0.58420061762E+01  0.35629803298E+02 -0.32941312487E+03  0.33141923413E+03  0.46999998093E+01 0. -1.
</event>
<event>
10   0  0.1583500E-03  0.1831514E+03  0.7818609E-02  0.1176118E+00
       21   -1    0    0  501  503  0.00000000000E+00  0.00000000000E+00  0.59458167351E+02  0.59458167351E+02  0.00000000000E+00 0. -1.
        2   -1    0    0  503    0  0.00000000000E+00  0.00000000000E+00 -0.57034545685E+03  0.57034545685E+03  0.25500000920E-02 0. -1.
       25    2    1    2    0    0 -0.24598808818E+02  0.61276197620E+02 -0.81948962914E+02  0.16339979670E+03  0.12499594892E+03 0.  0.
        6    2    1    2  501    0  0.24598808818E+02 -0.61276197620E+02 -0.42893832658E+03  0.46640382751E+03  0.17083491597E+03 0.  0.
       24    2    4    4    0    0 -0.41417678460E+02 -0.54664945534E+01 -0.27872289422E+03  0.29302659237E+03  0.80204896467E+02 0.  0.
      -11    1    5    5    0    0 -0.30585841211E+02 -0.40550141992E+02 -0.12384707913E+03  0.13385778539E+03  0.51099999109E-03 0.  1.
       12    1    5    5    0    0 -0.10831837249E+02  0.35083647438E+02 -0.15487581509E+03  0.15916880698E+03  0.00000000000E+00 0. -1.
        5    1    4    4  501    0  0.66016487278E+02 -0.55809703066E+02 -0.15021543236E+03  0.17337723514E+03  0.46999998093E+01 0. -1.
        5    1    3    3  502    0 -0.73196715778E+02  0.38141673197E+02 -0.69384504409E+02  0.10792981926E+03  0.46999998093E+01 0.  1.
       -5    1    3    3    0  502  0.48597906960E+02  0.23134524423E+02 -0.12564458505E+02  0.55469977437E+02  0.46999998093E+01 0.  1.
</event>
<event>
10   0  0.1583500E-03  0.2380619E+03  0.7818609E-02  0.1127201E+00
       21   -1    0    0  501  503  0.00000000000E+00  0.00000000000E+00  0.73624380886E+02  0.73624380886E+02  0.00000000000E+00 0.  1.
        2   -1    0    0  503    0  0.00000000000E+00  0.00000000000E+00 -0.67850099285E+03  0.67850099285E+03  0.25500000920E-02 0.  1.
       25    2    1    2    0    0  0.59334065378E+01 -0.16181607468E+03 -0.33240876231E+03  0.39030748486E+03  0.12499880054E+03 0.  0.
        6    2    1    2  501    0 -0.59334065378E+01  0.16181607468E+03 -0.27246784965E+03  0.36181788888E+03  0.17451019535E+03 0.  0.
       24    2    4    4    0    0 -0.66205818757E+02  0.10348425252E+03 -0.12978694778E+03  0.19624224179E+03  0.81081222809E+02 0.  0.
      -11    1    5    5    0    0 -0.50158633908E+02  0.11233742849E+03 -0.12845606782E+03  0.17786665723E+03  0.51099999109E-03 0.  1.
       12    1    5    5    0    0 -0.16047184849E+02 -0.88531759737E+01 -0.13308799650E+01  0.18375584559E+02  0.00000000000E+00 0. -1.
        5    1    4    4  501    0  0.60272412220E+02  0.58331822163E+02 -0.14268090187E+03  0.16557564709E+03  0.46999998093E+01 0. -1.
        5    1    3    3  502    0  0.61875922420E+02 -0.82567954616E+02 -0.21022574028E+03  0.23422862502E+03  0.46999998093E+01 0. -1.
       -5    1    3    3    0  502 -0.55942515882E+02 -0.79248120067E+02 -0.12218302203E+03  0.15607885984E+03  0.46999998093E+01 0. -1.
</event>
<event>
10   0  0.1583500E-03  0.2031589E+03  0.7818609E-02  0.1155615E+00
        2   -1    0    0  503    0  0.00000000000E+00  0.00000000000E+00  0.80394097450E+03  0.80394097451E+03  0.00000000000E+00 0. -1.
       21   -1    0    0  501  503  0.00000000000E+00  0.00000000000E+00 -0.64601348163E+02  0.64601348163E+02  0.25500000920E-02 0.  1.
       25    2    1    2    0    0 -0.41660782273E+02  0.10118182977E+03  0.59903598588E+03  0.62164429150E+03  0.12499651725E+03 0.  0.
        6    2    1    2  501    0  0.41660782273E+02 -0.10118182977E+03  0.14030364046E+03  0.24689803117E+03  0.17117284484E+03 0.  0.
       24    2    4    4    0    0  0.88513224693E+02 -0.58927074637E+02  0.70378288188E+02  0.15259924761E+03  0.83823838200E+02 0.  0.
      -15    1    5    5    0    0  0.12644523800E+02 -0.28653587570E+02 -0.14710142054E+02  0.34647627204E+02  0.17769999504E+01 0.  1.
       16    1    5    5    0    0  0.75868700893E+02 -0.30273487067E+02  0.85088430242E+02  0.11795162040E+03  0.00000000000E+00 0. -1.
        5    1    4    4  501    0 -0.46852442420E+02 -0.42254755135E+02  0.69925352273E+02  0.94298783560E+02  0.46999998093E+01 0. -1.
        5    1    3    3  502    0  0.43588607595E+02  0.35417042083E+02  0.16227741607E+03  0.17178586481E+03  0.46999998093E+01 0.  1.
       -5    1    3    3    0  502 -0.85249389868E+02  0.65764787690E+02  0.43675856981E+03  0.44985842670E+03  0.46999998093E+01 0.  1.
</event>
<event>
10   0  0.1583500E-03  0.2298002E+03  0.7818609E-02  0.1132826E+00
       21   -1    0    0  501  503  0.00000000000E+00  0.00000000000E+00  0.23760734615E+03  0.23760734615E+03  0.00000000000E+00 0. -1.
        2   -1    0    0  503    0  0.00000000000E+00  0.00000000000E+00 -0.21802821471E+03  0.21802821473E+03  0.25500000920E-02 0. -1.
       25    2    1    2    0    0 -0.10409755765E+03  0.11302481500E+03 -0.68416178853E+02  0.20956377142E+03  0.12500116179E+03 0.  0.
        6    2    1    2  501    0  0.10409755765E+03 -0.11302481500E+03  0.87995310288E+02  0.24607178945E+03  0.17087200068E+03 0.  0.
       24    2    4    4    0    0 -0.68807393766E+01 -0.16422858269E+02  0.18183309939E+02  0.83148722187E+02  0.79158211152E+02 0.  0.
      -11    1    5    5    0    0  0.15679158817E+02  0.10649421810E+01  0.42713180018E+02  0.45512480382E+02  0.51099999109E-03 0.  1.
       12    1    5    5    0    0 -0.22559898193E+02 -0.17487800450E+02 -0.24529870079E+02  0.37636241804E+02  0.00000000000E+00 0. -1.
        5    1    4    4  501    0  0.11097829703E+03 -0.96601956731E+02  0.69812000349E+02  0.16292306726E+03  0.46999998093E+01 0. -1.
        5    1    3    3  502    0 -0.81160215933E+02  0.84198436921E+02 -0.10514356173E+03  0.15733281921E+03  0.46999998093E+01 0.  1.
       -5    1    3    3    0  502 -0.22937341717E+02  0.28826378079E+02  0.36727382873E+02  0.52230952213E+02  0.46999998093E+01 0.  1.
</event>
<event>
10   0  0.1583500E-03  0.1777237E+03  0.7818609E-02  0.1182865E+00
       21   -1    0    0  501  503  0.00000000000E+00  0.00000000000E+00  0.29528494409E+03  0.29528494409E+03  0.00000000000E+00 0. -1.
       -4   -1    0    0    0  501  0.00000000000E+00  0.00000000000E+00 -0.84306992097E+02  0.84316557190E+02  0.12699999809E+01 0. -1.
       25    2    1    2    0    0  0.42872328040E+02  0.14387452000E+02  0.57698789593E+02  0.14490975876E+03  0.12499861030E+03 0.  0.
       -6    2    1    2    0  503 -0.42872328040E+02 -0.14387452000E+02  0.15327916240E+03  0.23469174251E+03  0.17187401517E+03 0.  0.
      -24    2    4    4    0    0 -0.87056044650E+02  0.22139547583E+02  0.10111808262E+03  0.15704323478E+03  0.79804739704E+02 0.  0.
       11    1    5    5    0    0 -0.46583331364E+02 -0.16758152410E+01  0.11871873853E+01  0.46628580633E+02  0.51099999109E-03 0. -1.
      -12    1    5    5    0    0 -0.40472713286E+02  0.23815362824E+02  0.99930895238E+02  0.11041465415E+03  0.00000000000E+00 0.  1.
       -5    1    4    4    0  503  0.44183716610E+02 -0.36526999583E+02  0.52161079773E+02  0.77648507734E+02  0.46999998093E+01 0.  1.
        5    1    3    3  502    0 -0.12286818140E+02 -0.30765840181E+02  0.64992459968E+02  0.73100018283E+02  0.46999998093E+01 0. -1.
       -5    1    3    3    0  502  0.55159146179E+02  0.45153292182E+02 -0.72936703755E+01  0.71809740480E+02  0.46999998093E+01 0. -1.
</event>
<event>
10   0  0.1583500E-03  0.2852360E+03  0.7818609E-02  0.1096664E+00
        2   -1    0    0  503    0  0.00000000000E+00  0.00000000000E+00  0.11021557443E+03  0.11021557446E+03  0.00000000000E+00 0. -1.
       21   -1    0    0  501  503  0.00000000000E+00  0.00000000000E+00 -0.71465445953E+03  0.71465445953E+03  0.25500000920E-02 0.  1.
       25    2    1    2    0    0  0.14905073031E+03  0.16978496340E+03 -0.18500468396E+03  0.31763771601E+03  0.12499572609E+03 0.  0.
        6    2    1    2  501    0 -0.14905073031E+03 -0.16978496340E+03 -0.41943420113E+03  0.50723231799E+03  0.17411640166E+03 0.  0.
       24    2    4    4    0    0 -0.38139158506E+02 -0.13142193940E+03 -0.30030877063E+03  0.33994198186E+03  0.81540614099E+02 0.  0.
      -15    1    5    5    0    0 -0.38851846187E+02 -0.39938324315E+02 -0.55787916724E+02  0.78866882039E+02  0.17769999504E+01 0.  1.
       16    1    5    5    0    0  0.71268768165E+00 -0.91483615081E+02 -0.24452085391E+03  0.26107509982E+03  0.00000000000E+00 0. -1.
        5    1    4    4  501    0 -0.11091157180E+03 -0.38363024001E+02 -0.11912543050E+03  0.16729033612E+03  0.46999998093E+01 0. -1.
        5    1    3    3  502    0  0.12441960226E+03  0.10064505937E+03 -0.56877137578E+02  0.16990221946E+03  0.46999998093E+01 0. -1.
       -5    1    3    3    0  502  0.24631128053E+02  0.69139904028E+02 -0.12812754638E+03  0.14773549654E+03  0.46999998093E+01 0. -1.
</event>
<event>
10   0  0.1583500E-03  0.2450790E+03  0.7818609E-02  0.1121705E+00
        2   -1    0    0  503    0  0.00000000000E+00  0.00000000000E+00  0.23415875609E+04  0.23415875609E+04  0.00000000000E+00 0. -1.
       21   -1    0    0  501  503  0.00000000000E+00  0.00000000000E+00 -0.49927288592E+02  0.49927288592E+02  0.25500000920E-02 0.  1.
       25    2    1    2    0    0  0.61474559552E+02  0.16360089971E+03  0.19957875714E+04  0.20073217168E+04  0.12501227486E+03 0.  0.
        6    2    1    2  501    0 -0.61474559552E+02 -0.16360089971E+03  0.29587270086E+03  0.38419313261E+03  0.17181190928E+03 0.  0.
       24    2    4    4    0    0  0.20008726013E+02 -0.50417384465E+02  0.66274147793E+02  0.11551559443E+03  0.77519856289E+02 0.  0.
      -15    1    5    5    0    0 -0.20044142982E+02 -0.28058702062E+02  0.59988682735E+02  0.69216025705E+02  0.17769999504E+01 0.  1.
       16    1    5    5    0    0  0.40052868996E+02 -0.22358682403E+02  0.62854650584E+01  0.46299568730E+02  0.00000000000E+00 0. -1.
        5    1    4    4  501    0 -0.81483285565E+02 -0.11318351525E+03  0.22959855306E+03  0.26867753817E+03  0.46999998093E+01 0. -1.
        5    1    3    3  502    0  0.34886600012E+02  0.12067446257E+02  0.13072077651E+03  0.13591434630E+03  0.46999998093E+01 0. -1.
       -5    1    3    3    0  502  0.26587959540E+02  0.15153345346E+03  0.18650667949E+04  0.18714073705E+04  0.46999998093E+01 0. -1.
</event>
<event>
10   0  0.1583500E-03  0.2031998E+03  0.7818609E-02  0.1155721E+00
        2   -1    0    0  503    0  0.00000000000E+00  0.00000000000E+00  0.18397206101E+04  0.18397206101E+04  0.00000000000E+00 0.  1.
       21   -1    0    0  501  503  0.00000000000E+00  0.00000000000E+00 -0.22584594508E+02  0.22584594508E+02  0.25500000920E-02 0.  1.
       25    2    1    2    0    0  0.28102919975E+02  0.10494875529E+03  0.12278534691E+04  0.12389721560E+04  0.12499538522E+03 0.  0.
        6    2    1    2  501    0 -0.28102919975E+02 -0.10494875529E+03  0.58928254653E+03  0.62333304868E+03  0.17171533009E+03 0.  0.
       24    2    4    4    0    0 -0.25064802841E+02 -0.65611565510E+02  0.15766692804E+03  0.18989242209E+03  0.79165332695E+02 0.  0.
      -13    1    5    5    0    0 -0.11744357737E+02 -0.52493978201E+02  0.16200383362E+03  0.17070091083E+03  0.10565999895E+00 0.  1.
       14    1    5    5    0    0 -0.13320445104E+02 -0.13117587308E+02 -0.43369055811E+01  0.19191511264E+02  0.00000000000E+00 0. -1.
        5    1    4    4  501    0 -0.30381171336E+01 -0.39337189784E+02  0.43161561849E+03  0.43344062659E+03  0.46999998093E+01 0. -1.
        5    1    3    3  502    0  0.51465295987E+02  0.11973120131E+03  0.11186449950E+04  0.11262206499E+04  0.46999998093E+01 0.  1.
       -5    1    3    3    0  502 -0.23362376012E+02 -0.14782446013E+02  0.10920847407E+03  0.11275150611E+03  0.46999998093E+01 0.  1.
</event>
<event>
10   0  0.1583500E-03  0.2125557E+03  0.7818609E-02  0.1147752E+00
       21   -1    0    0  501  503  0.00000000000E+00  0.00000000000E+00  0.27643951116E+02  0.27643951116E+02  0.00000000000E+00 0. -1.
        2   -1    0    0  503    0  0.00000000000E+00  0.00000000000E+00 -0.23197657404E+04  0.23197657404E+04  0.25500000920E-02 0. -1.
       25    2    1    2    0    0  0.56673309307E+02  0.10802021292E+03 -0.18349192480E+04  0.18432132181E+04  0.12500436064E+03 0.  0.
        6    2    1    2  501    0 -0.56673309307E+02 -0.10802021292E+03 -0.45720254131E+03  0.50419647348E+03  0.17406806054E+03 0.  0.
       24    2    4    4    0    0 -0.26778798245E+02 -0.11489024362E+03 -0.20411319258E+03  0.24921179246E+03  0.80792635834E+02 0.  0.
      -11    1    5    5    0    0 -0.38323380609E+02 -0.19232476217E+02 -0.38586791931E+02  0.57684574667E+02  0.51099999109E-03 0.  1.
       12    1    5    5    0    0  0.11544582364E+02 -0.95657767399E+02 -0.16552640065E+03  0.19152721780E+03  0.00000000000E+00 0. -1.
        5    1    4    4  501    0 -0.29894511061E+02  0.68700306932E+01 -0.25308934873E+03  0.25498468101E+03  0.46999998093E+01 0. -1.
        5    1    3    3  502    0 -0.28331807215E+02 -0.67027903286E+01 -0.44342610381E+03  0.44440569105E+03  0.46999998093E+01 0.  1.
       -5    1    3    3    0  502  0.85005116521E+02  0.11472300325E+03 -0.13914931442E+04  0.13988075270E+04  0.46999998093E+01 0.  1.
</event>
<event>
10   0  0.1583500E-03  0.2026003E+03  0.7818609E-02  0.1156860E+00
       21   -1    0    0  501  503  0.00000000000E+00  0.00000000000E+00  0.38294461865E+02  0.38294461865E+02  0.00000000000E+00 0.  1.
        2   -1    0    0  503    0  0.00000000000E+00  0.00000000000E+00 -0.11374789322E+04  0.11374789322E+04  0.25500000920E-02 0.  1.
       25    2    1    2    0    0  0.10392703913E+03 -0.64519306024E+01 -0.78678614459E+03  0.80342998814E+03  0.12499940663E+03 0.  0.
        6    2    1    2  501    0 -0.10392703913E+03  0.64519306024E+01 -0.31239832573E+03  0.37234340591E+03  0.17379424942E+03 0.  0.
       24    2    4    4    0    0 -0.41950150722E+02 -0.33732700533E+02 -0.26986168423E+03  0.28697716466E+03  0.81442336583E+02 0.  0.
      -15    1    5    5    0    0  0.24616178110E+02 -0.55355772274E+01 -0.66440828829E+02  0.71092477129E+02  0.17769999504E+01 0.  1.
       16    1    5    5    0    0 -0.66566328833E+02 -0.28197123305E+02 -0.20342085541E+03  0.21588468753E+03  0.00000000000E+00 0. -1.
        5    1    4    4  501    0 -0.61976888411E+02  0.40184631135E+02 -0.42536641493E+02  0.85366241245E+02  0.46999998093E+01 0. -1.
        5    1    3    3  502    0  0.68343418234E+02  0.55853137065E+02 -0.36433877567E+03  0.37490696072E+03  0.46999998093E+01 0.  1.
       -5    1    3    3    0  502  0.35583620899E+02 -0.62305067667E+02 -0.42244736891E+03  0.42852302743E+03  0.46999998093E+01 0.  1.
</event>
<event>
10   0  0.1583500E-03  0.2486414E+03  0.7818609E-02  0.1118247E+00
        2   -1    0    0  503    0  0.00000000000E+00  0.00000000000E+00  0.13522832791E+04  0.13522832791E+04  0.00000000000E+00 0.  1.
       21   -1    0    0  501  503  0.00000000000E+00  0.00000000000E+00 -0.63070437942E+02  0.63070437942E+02  0.25500000920E-02 0.  1.
       25    2    1    2    0    0 -0.18182227197E+03 -0.40640405417E+02  0.10377304866E+04  0.10617071007E+04  0.12500569427E+03 0.  0.
        6    2    1    2  501    0  0.18182227197E+03  0.40640405417E+02  0.25148235450E+03  0.35364661635E+03  0.16465592455E+03 0.  0.
       24    2    4    4    0    0  0.17439814548E+03  0.57823232367E+01  0.14032299819E+03  0.23681898245E+03  0.77100831500E+02 0.  0.
      -13    1    5    5    0    0  0.11428034108E+03 -0.29215263034E+02  0.66603867792E+02  0.13546074826E+03  0.10565999895E+00 0.  1.
       14    1    5    5    0    0  0.60117804409E+02  0.34997586271E+02  0.73719130396E+02  0.10135823419E+03  0.00000000000E+00 0. -1.
        5    1    4    4  501    0  0.74241264852E+01  0.34858082180E+02  0.11115935632E+03  0.11682763390E+03  0.46999998093E+01 0. -1.
        5    1    3    3  502    0 -0.17962305470E+03  0.33630268119E+01  0.80840254810E+03  0.82813798458E+03  0.46999998093E+01 0.  1.
       -5    1    3    3    0  502 -0.21992172717E+01 -0.44003432229E+02  0.22932793852E+03  0.23356911608E+03  0.46999998093E+01 0.  1.
</event>
<event>
10   0  0.1583500E-03  0.2012110E+03  0.7818609E-02  0.1157429E+00
       -2   -1    0    0    0  501  0.00000000000E+00  0.00000000000E+00  0.38557595327E+03  0.38557595328E+03  0.00000000000E+00 0. -1.
       21   -1    0    0  501  503  0.00000000000E+00  0.00000000000E+00 -0.94308508767E+02  0.94308508767E+02  0.25500000920E-02 0. -1.
       25    2    1    2    0    0 -0.40414912689E+02 -0.97981948037E+02  0.20102827291E+03  0.25936465318E+03  0.12499531793E+03 0.  0.
       -6    2    1    2    0  503  0.40414912689E+02  0.97981948037E+02  0.90239171596E+02  0.22051980886E+03  0.17103230894E+03 0.  0.
      -24    2    4    4    0    0  0.86169803251E+02  0.33932525323E+02  0.60012074738E+02  0.13607097262E+03  0.79606590229E+02 0.  0.
       13    1    5    5    0    0  0.36249992542E+02  0.52990068432E+02  0.14356269571E+02  0.65788471268E+02  0.10565999895E+00 0. -1.
      -14    1    5    5    0    0  0.49919810709E+02 -0.19057543109E+02  0.45655805167E+02  0.70282501350E+02  0.00000000000E+00 0.  1.
       -5    1    4    4    0  503 -0.45754890562E+02  0.64049422714E+02  0.30227096858E+02  0.84448836244E+02  0.46999998093E+01 0.  1.
        5    1    3    3  502    0 -0.78695269797E+02 -0.52171828396E+02  0.16298941825E+03  0.18842103287E+03  0.46999998093E+01 0.  1.
       -5    1    3    3    0  502  0.38280357108E+02 -0.45810119641E+02  0.38038854654E+02  0.70943620315E+02  0.46999998093E+01 0.  1.
</event>
<event>
10   0  0.1583500E-03  0.2141337E+03  0.7818609E-02  0.1146772E+00
       21   -1    0    0  501  503  0.00000000000E+00  0.00000000000E+00  0.50503690072E+02  0.50503690072E+02  0.00000000000E+00 0. -1.
        2   -1    0    0  503    0  0.00000000000E+00  0.00000000000E+00 -0.78391485354E+03  0.78391485354E+03  0.25500000920E-02 0. -1.
       25    2    1    2    0    0  0.73534618527E+02  0.97701059874E+02 -0.41889609030E+03  0.45392811574E+03  0.12499585020E+03 0.  0.
        6    2    1    2  501    0 -0.73534618527E+02 -0.97701059874E+02 -0.31451507317E+03  0.38049042787E+03  0.17578508820E+03 0.  0.
       24    2    4    4    0    0 -0.89338094581E+02 -0.11691948042E+03 -0.31352633945E+03  0.35514945046E+03  0.78618741939E+02 0.  0.
      -11    1    5    5    0    0 -0.65033845143E+02 -0.78732495900E+02 -0.28218130716E+03  0.30009081465E+03  0.51099999109E-03 0.  1.
       12    1    5    5    0    0 -0.24304249438E+02 -0.38186984524E+02 -0.31345032289E+02  0.55058635807E+02  0.00000000000E+00 0. -1.
        5    1    4    4  501    0  0.15803476054E+02  0.19218420550E+02 -0.98873371213E+00  0.25340977416E+02  0.46999998093E+01 0. -1.
        5    1    3    3  502    0  0.67886676641E+02  0.10852079678E+03 -0.21978025842E+03  0.25438320737E+03  0.46999998093E+01 0. -1.
       -5    1    3    3    0  502  0.56479418852E+01 -0.10819736911E+02 -0.19911583188E+03  0.19954490837E+03  0.46999998093E+01 0. -1.
</event>
<event>
10   0  0.1583500E-03  0.4630772E+03  0.7818609E-02  0.1024982E+00
        2   -1    0    0  503    0  0.00000000000E+00  0.00000000000E+00  0.27727669932E+04  0.27727669932E+04  0.00000000000E+00 0. -1.
       21   -1    0    0  501  503  0.00000000000E+00  0.00000000000E+00 -0.10886360349E+03  0.10886360349E+03  0.25500000920E-02 0.  1.
       25    2    1    2    0    0 -0.21815427483E+03 -0.37101882550E+03  0.21220233515E+04  0.21688371383E+04  0.12500068624E+03 0.  0.
        6    2    1    2  501    0  0.21815427483E+03  0.37101882550E+03  0.54188003823E+03  0.71279345842E+03  0.17086334318E+03 0.  0.
       24    2    4    4    0    0  0.94574543184E+02  0.28528169621E+03  0.33698167524E+03  0.45857262024E+03  0.80013799918E+02 0.  0.
      -15    1    5    5    0    0  0.83296871725E+02  0.13335696864E+03  0.19310419151E+03  0.24902778245E+03  0.17769999504E+01 0.  1.
       16    1    5    5    0    0  0.11277671459E+02  0.15192472758E+03  0.14387748373E+03  0.20954483779E+03  0.00000000000E+00 0. -1.
        5    1    4    4  501    0  0.12357973164E+03  0.85737129288E+02  0.20489836299E+03  0.25422083818E+03  0.46999998093E+01 0. -1.
        5    1    3    3  502    0 -0.10969573635E+03 -0.79114947136E+02  0.56614605820E+03  0.58209602185E+03  0.46999998093E+01 0.  1.
       -5    1    3    3    0  502 -0.10845853847E+03 -0.29190387837E+03  0.15558772933E+04  0.15867411164E+04  0.46999998093E+01 0.  1.
</event>
<event>
10   0  0.1583500E-03  0.2922280E+03  0.7818609E-02  0.1092510E+00
       -4   -1    0    0    0  501  0.00000000000E+00  0.00000000000E+00  0.13822606181E+04  0.13822612015E+04  0.00000000000E+00 0.  1.
       21   -1    0    0  501  503  0.00000000000E+00  0.00000000000E+00 -0.96065875483E+02  0.96065875483E+02  0.12699999809E+01 0.  1.
       25    2    1    2    0    0 -0.71536495979E+02 -0.22568491589E+03  0.10993335194E+04  0.11314635206E+04  0.12499744005E+03 0.  0.
       -6    2    1    2    0  503  0.71536495979E+02  0.22568491589E+03  0.18686122320E+03  0.34686355641E+03  0.17130691321E+03 0.  0.
      -24    2    4    4    0    0  0.54629653792E+01  0.13757378089E+02  0.44759329116E+02  0.83246350931E+02  0.68610844317E+02 0.  0.
       13    1    5    5    0    0 -0.67552080570E+01  0.81034531805E+01 -0.17015825143E+02  0.20021195236E+02  0.10565999895E+00 0. -1.
      -14    1    5    5    0    0  0.12218173436E+02  0.56539249082E+01  0.61775154259E+02  0.63225155695E+02  0.00000000000E+00 0.  1.
       -5    1    4    4    0  503  0.66073530600E+02  0.21192753780E+03  0.14210189409E+03  0.26361720548E+03  0.46999998093E+01 0.  1.
        5    1    3    3  502    0  0.35564353885E+02 -0.56377232667E+02  0.30607257725E+03  0.31328218618E+03  0.46999998093E+01 0. -1.
       -5    1    3    3    0  502 -0.10710084986E+03 -0.16930768322E+03  0.79326094212E+03  0.81818133438E+03  0.46999998093E+01 0. -1.
</event>
<event>
10   0  0.1583500E-03  0.1960503E+03  0.7818609E-02  0.1162734E+00
       21   -1    0    0  501  503  0.00000000000E+00  0.00000000000E+00  0.14881426671E+03  0.14881426671E+03  0.00000000000E+00 0. -1.
       -4   -1    0    0    0  501  0.00000000000E+00  0.00000000000E+00 -0.29297504228E+03  0.29297779489E+03  0.12699999809E+01 0. -1.
       25    2    1    2    0    0 -0.93465012430E+02 -0.12614581698E+02 -0.18412918195E+03  0.24170906936E+03  0.12499952939E+03 0.  0.
       -6    2    1    2    0  503  0.93465012430E+02  0.12614581698E+02  0.39968406387E+02  0.20008299223E+03  0.17187464633E+03 0.  0.
      -24    2    4    4    0    0 -0.21966266535E+02  0.14473359250E+01  0.15686366434E+02  0.81504769090E+02  0.76891830813E+02 0.  0.
       13    1    5    5    0    0  0.19673036770E+02 -0.16563330350E+02  0.24236844566E+02  0.35338478838E+02  0.10565999895E+00 0. -1.
      -14    1    5    5    0    0 -0.41639303304E+02  0.18010666275E+02 -0.85504781320E+01  0.46166290252E+02  0.00000000000E+00 0.  1.
       -5    1    4    4    0  503  0.11543127896E+03  0.11167245773E+02  0.24282039952E+02  0.11857822314E+03  0.46999998093E+01 0.  1.
        5    1    3    3  502    0 -0.30901478545E+02 -0.25622131491E+02 -0.17176123915E+03  0.17645228327E+03  0.46999998093E+01 0. -1.
       -5    1    3    3    0  502 -0.62563533885E+02  0.13007549794E+02 -0.12367942798E+02  0.65256786092E+02  0.46999998093E+01 0. -1.
</event>
<event>
10   0  0.1583500E-03  0.2644866E+03  0.7818609E-02  0.1108791E+00
        2   -1    0    0  503    0  0.00000000000E+00  0.00000000000E+00  0.26290259207E+04  0.26290259207E+04  0.00000000000E+00 0. -1.
       21   -1    0    0  501  503  0.00000000000E+00  0.00000000000E+00 -0.62980604948E+02  0.62980604948E+02  0.25500000920E-02 0.  1.
       25    2    1    2    0    0 -0.19207173070E+03 -0.59651630192E+02  0.23158684709E+04  0.23279438418E+04  0.12500355760E+03 0.  0.
        6    2    1    2  501    0  0.19207173070E+03  0.59651630192E+02  0.25017684483E+03  0.36406268382E+03  0.17176529724E+03 0.  0.
       24    2    4    4    0    0  0.15859647574E+03  0.10434027409E+03  0.17356489300E+03  0.26914614811E+03  0.79215794183E+02 0.  0.
      -13    1    5    5    0    0  0.72498545325E+02  0.81611391336E+01  0.39200976264E+02  0.82821319539E+02  0.10565999895E+00 0.  1.
       14    1    5    5    0    0  0.86097930414E+02  0.96179134954E+02  0.13436391673E+03  0.18632482857E+03  0.00000000000E+00 0. -1.
        5    1    4    4  501    0  0.33475254962E+02 -0.44688643896E+02  0.76611951837E+02  0.94916535707E+02  0.46999998093E+01 0. -1.
        5    1    3    3  502    0 -0.46799835822E+02  0.37570012095E+02  0.72454518524E+03  0.72704163972E+03  0.46999998093E+01 0.  1.
       -5    1    3    3    0  502 -0.14527189488E+03 -0.97221642288E+02  0.15913232857E+04  0.16009022021E+04  0.46999998093E+01 0.  1.
</event>
<event>
10   0  0.1583500E-03  0.2020479E+03  0.7818609E-02  0.1156986E+00
        2   -1    0    0  503    0  0.00000000000E+00  0.00000000000E+00  0.92001227888E+03  0.92001227888E+03  0.00000000000E+00 0.  1.
       21   -1    0    0  501  503  0.00000000000E+00  0.00000000000E+00 -0.39073621962E+02  0.39073621962E+02  0.25500000920E-02 0.  1.
       25    2    1    2    0    0  0.42178036280E+01  0.10533970262E+03  0.52402103568E+03  0.54894745069E+03  0.12502405756E+03 0.  0.
        6    2    1    2  501    0 -0.42178036280E+01 -0.10533970262E+03  0.35691762124E+03  0.41013845016E+03  0.17236332884E+03 0.  0.
       24    2    4    4    0    0 -0.77785099967E+01 -0.73623420921E+02  0.89640398174E+02  0.14092142781E+03  0.79640030791E+02 0.  0.
      -11    1    5    5    0    0  0.27387729255E+02 -0.60212928234E+02  0.76320244899E+02  0.10099734760E+03  0.51099999109E-03 0.  1.
       12    1    5    5    0    0 -0.35166239251E+02 -0.13410492687E+02  0.13320153275E+02  0.39924080208E+02  0.00000000000E+00 0. -1.
        5    1    4    4  501    0  0.35607063687E+01 -0.31716281702E+02  0.26727722307E+03  0.26921702235E+03  0.46999998093E+01 0. -1.
        5    1    3    3  502    0  0.12477668030E+02  0.13219414725E+03  0.39254768473E+03  0.41442340613E+03  0.46999998093E+01 0.  1.
       -5    1    3    3    0  502 -0.82598644016E+01 -0.26854444625E+02  0.13147335095E+03  0.13452404456E+03  0.46999998093E+01 0.  1.
</event>
<event>
10   0  0.1583500E-03  0.2721870E+03  0.7818609E-02  0.1104215E+00
       -2   -1    0    0    0  501  0.00000000000E+00  0.00000000000E+00  0.27212481766E+03  0.27212481768E+03  0.00000000000E+00 0.  1.
       21   -1    0    0  501  503  0.00000000000E+00  0.00000000000E+00 -0.32659711087E+03  0.32659711087E+03  0.25500000920E-02 0. -1.
       25    2    1    2    0    0  0.16375797603E+03  0.13133108321E+03  0.12326045082E+03  0.27364551454E+03  0.12499680301E+03 0.  0.
       -6    2    1    2    0  503 -0.16375797603E+03 -0.13133108321E+03 -0.17773274402E+03  0.32507641400E+03  0.17326632250E+03 0.  0.
      -24    2    4    4    0    0 -0.12110020556E+03 -0.20243140829E+02 -0.62607777278E+02  0.15943806008E+03  0.80160568167E+02 0.  0.
       13    1    5    5    0    0 -0.12227067924E+03 -0.21815727057E+02 -0.31321164939E+02  0.12809009128E+03  0.10565999895E+00 0. -1.
      -14    1    5    5    0    0  0.11704736728E+01  0.15725862286E+01 -0.31286612340E+02  0.31347968798E+02  0.00000000000E+00 0.  1.
       -5    1    4    4    0  503 -0.42657770465E+02 -0.11108794238E+03 -0.11512496674E+03  0.16563835392E+03  0.46999998093E+01 0.  1.
        5    1    3    3  502    0  0.88562286930E+02  0.38766677011E+02 -0.69168213606E+01  0.97036417539E+02  0.46999998093E+01 0. -1.
       -5    1    3    3    0  502  0.75195689099E+02  0.92564406200E+02  0.13017727218E+03  0.17660909700E+03  0.46999998093E+01 0. -1.
</event>
<event>
10   0  0.1583500E-03  0.2274373E+03  0.7818609E-02  0.1135026E+00
       21   -1    0    0  501  503  0.00000000000E+00  0.00000000000E+00  0.46450649317E+02  0.46450649317E+02  0.00000000000E+00 0. -1.
       -2   -1    0    0    0  501  0.00000000000E+00  0.00000000000E+00 -0.10740642755E+04  0.10740642755E+04  0.25500000920E-02 0.  1.
       25    2    1    2    0    0 -0.12231182828E+03  0.83141392986E+02 -0.29062158437E+03  0.34922705648E+03  0.12500382838E+03 0.  0.
       -6    2    1    2    0  503  0.12231182828E+03 -0.83141392986E+02 -0.73699204178E+03  0.77128786831E+03  0.17278608621E+03 0.  0.
      -24    2    4    4    0    0  0.51166108846E+02 -0.78141132243E+02 -0.24328037086E+03  0.27242915084E+03  0.79424782876E+02 0.  0.
       13    1    5    5    0    0  0.56829328175E+02 -0.19055730396E+02 -0.15364427082E+03  0.16492200133E+03  0.10565999895E+00 0. -1.
      -14    1    5    5    0    0 -0.56632193287E+01 -0.59085401847E+02 -0.89636100045E+02  0.10750714951E+03  0.00000000000E+00 0.  1.
       -5    1    4    4    0  503  0.71145719433E+02 -0.50002607427E+01 -0.49371167091E+03  0.49885871747E+03  0.46999998093E+01 0.  1.
        5    1    3    3  502    0 -0.13484111518E+03  0.29203170826E+02 -0.20972790308E+03  0.25108332254E+03  0.46999998093E+01 0.  1.
       -5    1    3    3    0  502  0.12529286904E+02  0.53938222160E+02 -0.80893681287E+02  0.98143733934E+02  0.46999998093E+01 0.  1.
</event>
<event>
10   0  0.1583500E-03  0.2155205E+03  0.7818609E-02  0.1144287E+00
       21   -1    0    0  501  503  0.00000000000E+00  0.00000000000E+00  0.10412701368E+03  0.10412701368E+03  0.00000000000E+00 0.  1.
        2   -1    0    0  503    0  0.00000000000E+00  0.00000000000E+00 -0.45396750396E+03  0.45396750396E+03  0.25500000920E-02 0. -1.
       25    2    1    2    0    0  0.13004161232E+03  0.24165670014E+02 -0.27536112614E+03  0.33006763448E+03  0.12500437192E+03 0.  0.
        6    2    1    2  501    0 -0.13004161232E+03 -0.24165670014E+02 -0.74479364135E+02  0.22802688317E+03  0.17015958163E+03 0.  0.
       24    2    4    4    0    0 -0.92590648487E+02  0.20638942856E+02  0.14800292531E+02  0.12124216928E+03  0.74037968663E+02 0.  0.
      -15    1    5    5    0    0 -0.10143425738E+03  0.14340815817E+02  0.25935546692E+02  0.10569000842E+03  0.17769999504E+01 0.  1.
       16    1    5    5    0    0  0.88436088891E+01  0.62981270389E+01 -0.11135254161E+02  0.15552160867E+02  0.00000000000E+00 0. -1.
        5    1    4    4  501    0 -0.37450963837E+02 -0.44804612870E+02 -0.89279656665E+02  0.10678471388E+03  0.46999998093E+01 0. -1.
        5    1    3    3  502    0  0.84027525661E+02 -0.44753450511E+02 -0.17971844217E+03  0.20343132712E+03  0.46999998093E+01 0. -1.
       -5    1    3    3    0  502  0.46014086663E+02  0.68919120525E+02 -0.95642683968E+02  0.12663630735E+03  0.46999998093E+01 0. -1.
</event>
<event>
10   0  0.1583500E-03  0.1792637E+03  0.7818609E-02  0.1178549E+00
        2   -1    0    0  503    0  0.00000000000E+00  0.00000000000E+00  0.12688273752E+04  0.12688273752E+04  0.00000000000E+00 0. -1.
       21   -1    0    0  501  503  0.00000000000E+00  0.00000000000E+00 -0.29824082212E+02  0.29824082212E+02  0.25500000920E-02 0.  1.
       25    2    1    2    0    0 -0.64916936712E+02  0.22939346009E+02  0.93422772173E+03  0.94506463601E+03  0.12500123166E+03 0.  0.
        6    2    1    2  501    0  0.64916936712E+02 -0.22939346009E+02  0.30477557130E+03  0.35358682145E+03  0.16551455880E+03 0.  0.
       24    2    4    4    0    0  0.80566974357E+02 -0.38037847522E+02  0.30848843468E+03  0.33103102886E+03  0.80489207575E+02 0.  0.
      -13    1    5    5    0    0  0.57370233005E+02 -0.63094942904E+02  0.23507376588E+03  0.25006399586E+03  0.10565999895E+00 0.  1.
       14    1    5    5    0    0  0.23196741352E+02  0.25057095382E+02  0.73414668799E+02  0.80967033002E+02  0.00000000000E+00 0. -1.
        5    1    4    4  501    0 -0.15650037645E+02  0.15098501513E+02 -0.37128633880E+01  0.22555792581E+02  0.46999998093E+01 0. -1.
        5    1    3    3  502    0 -0.49714482997E+01  0.46655297619E+02  0.71378619631E+03  0.71534205534E+03  0.46999998093E+01 0. -1.
       -5    1    3    3    0  502 -0.59945488412E+02 -0.23715951610E+02  0.22044152542E+03  0.22972258067E+03  0.46999998093E+01 0. -1.
</event>
<event>
10   0  0.1583500E-03  0.1992223E+03  0.7818609E-02  0.1159886E+00
       21   -1    0    0  501  503  0.00000000000E+00  0.00000000000E+00  0.25239905095E+02  0.25239905095E+02  0.00000000000E+00 0.  1.
        2   -1    0    0  503    0  0.00000000000E+00  0.00000000000E+00 -0.17788142008E+04  0.17788142008E+04  0.25500000920E-02 0.  1.
       25    2    1    2    0    0  0.54536232697E+02 -0.82587214425E+02 -0.12854722923E+04  0.12953213718E+04  0.12499437291E+03 0.  0.
        6    2    1    2  501    0 -0.54536232697E+02  0.82587214425E+02 -0.46810200337E+03  0.50873273408E+03  0.17290072441E+03 0.  0.
       24    2    4    4    0    0 -0.69443414251E+01 -0.38662782877E+01 -0.74251193646E+02  0.10267886470E+03  0.70473665389E+02 0.  0.
      -11    1    5    5    0    0 -0.38851243840E+02 -0.34512016045E+01 -0.40141600627E+02  0.55970331798E+02  0.51099999109E-03 0.  1.
       12    1    5    5    0    0  0.31906902414E+02 -0.41507668324E+00 -0.34109593019E+02  0.46708532906E+02  0.00000000000E+00 0. -1.
        5    1    4    4  501    0 -0.47591891272E+02  0.86453492713E+02 -0.39385080972E+03  0.40605386938E+03  0.46999998093E+01 0. -1.
        5    1    3    3  502    0  0.58343574685E+02 -0.10267067543E+02 -0.23686896242E+03  0.24420970648E+03  0.46999998093E+01 0.  1.
       -5    1    3    3    0  502 -0.38073419879E+01 -0.72320146882E+02 -0.10486033299E+04  0.10511116653E+04  0.46999998093E+01 0.  1.
</event>
<event>
10   0  0.1583500E-03  0.2378149E+03  0.7818609E-02  0.1126956E+00
       21   -1    0    0  501  503  0.00000000000E+00  0.00000000000E+00  0.70960308239E+02  0.70960308239E+02  0.00000000000E+00 0. -1.
        2   -1    0    0  503    0  0.00000000000E+00  0.00000000000E+00 -0.96690888655E+03  0.96690888655E+03  0.25500000920E-02 0. -1.
       25    2    1    2    0    0  0.15120683532E+03  0.64266580425E+02 -0.69975127995E+03  0.72956855400E+03  0.12499888316E+03 0.  0.
        6    2    1    2  501    0 -0.15120683532E+03 -0.64266580425E+02 -0.19619729837E+03  0.30830064079E+03  0.17193663024E+03 0.  0.
       24    2    4    4    0    0 -0.86488453746E+02 -0.10273132462E+03 -0.96624004122E+02  0.18338092103E+03  0.79109963579E+02 0.  0.
      -11    1    5    5    0    0 -0.11339068638E+02 -0.74502223542E+02 -0.41884913023E+02  0.86217757623E+02  0.51099999109E-03 0.  1.
       12    1    5    5    0    0 -0.75149385108E+02 -0.28229101074E+02 -0.54739091099E+02  0.97163163410E+02  0.00000000000E+00 0. -1.
        5    1    4    4  501    0 -0.64718381578E+02  0.38464744192E+02 -0.99573294244E+02  0.12491971976E+03  0.46999998093E+01 0. -1.
        5    1    3    3  502    0  0.36068670139E+02 -0.34496996341E+02 -0.11515845438E+03  0.12559678075E+03  0.46999998093E+01 0.  1.
       -5    1    3    3    0  502  0.11513816519E+03  0.98763576766E+02 -0.58459282557E+03  0.60397177325E+03  0.46999998093E+01 0.  1.
</event>
<event>
10   0  0.1583500E-03  0.2266720E+03  0.7818609E-02  0.1135580E+00
       21   -1    0    0  501  503  0.00000000000E+00  0.00000000000E+00  0.28928589216E+03  0.28928589216E+03  0.00000000000E+00 0.  1.
        2   -1    0    0  503    0  0.00000000000E+00  0.00000000000E+00 -0.94576023684E+03  0.94576023684E+03  0.25500000920E-02 0. -1.
       25    2    1    2    0    0  0.14529789163E+03 -0.22617637437E+02 -0.88936007342E+03  0.91006004296E+03  0.12499962704E+03 0.  0.
        6    2    1    2  501    0 -0.14529789163E+03  0.22617637437E+02  0.23288572874E+03  0.32498608604E+03  0.17250263370E+03 0.  0.
       24    2    4    4    0    0 -0.10281435240E+03  0.81579492758E+02  0.15044761322E+03  0.21498842981E+03  0.79746698545E+02 0.  0.
      -11    1    5    5    0    0 -0.49052339075E+02  0.63331958844E+02  0.13358517430E+03  0.15576285748E+03  0.51099999109E-03 0.  1.
       12    1    5    5    0    0 -0.53762013321E+02  0.18247533914E+02  0.16862438927E+02  0.59225572322E+02  0.00000000000E+00 0. -1.
        5    1    4    4  501    0 -0.42483539235E+02 -0.58961855321E+02  0.82438115517E+02  0.10999765623E+03  0.46999998093E+01 0. -1.
        5    1    3    3  502    0  0.24738007836E+02  0.40883078293E+02 -0.36997665093E+03  0.37307935798E+03  0.46999998093E+01 0.  1.
       -5    1    3    3    0  502  0.12055988379E+03 -0.63500715730E+02 -0.51938342249E+03  0.53698068497E+03  0.46999998093E+01 0.  1.
</event>
<event>
10   0  0.1583500E-03  0.2014447E+03  0.7818609E-02  0.1157551E+00
        2   -1    0    0  503    0  0.00000000000E+00  0.00000000000E+00  0.18460511773E+04  0.18460511773E+04  0.00000000000E+00 0. -1.
       21   -1    0    0  501  503  0.00000000000E+00  0.00000000000E+00 -0.32836739508E+02  0.32836739508E+02  0.25500000920E-02 0.  1.
       25    2    1    2    0    0  0.99461226602E+02 -0.31659406628E+02  0.14841661156E+04  0.14930734989E+04  0.12499824299E+03 0.  0.
        6    2    1    2  501    0 -0.99461226602E+02  0.31659406628E+02  0.32904832223E+03  0.38581441796E+03  0.17229368277E+03 0.  0.
       24    2    4    4    0    0 -0.65917304295E+02  0.87471263256E+02  0.23476319918E+03  0.27113254280E+03  0.80017392957E+02 0.  0.
      -11    1    5    5    0    0 -0.48100222997E+02  0.29326825500E+02  0.45735064217E+02  0.72563008795E+02  0.51099999109E-03 0.  1.
       12    1    5    5    0    0 -0.17817081298E+02  0.58144437756E+02  0.18902813496E+03  0.19856953400E+03  0.00000000000E+00 0. -1.
        5    1    4    4  501    0 -0.33543922307E+02 -0.55811856628E+02  0.94285123054E+02  0.11468187517E+03  0.46999998093E+01 0. -1.
        5    1    3    3  502    0  0.51681643218E+02 -0.39627925055E+02  0.13255969958E+04  0.13272041478E+04  0.46999998093E+01 0. -1.
       -5    1    3    3    0  502  0.47779583384E+02  0.79685184274E+01  0.15856911983E+03  0.16586935111E+03  0.46999998093E+01 0. -1.
</event>
<event>
10   0  0.1583500E-03  0.2298923E+03  0.7818609E-02  0.1133417E+00
        2   -1    0    0  503    0  0.00000000000E+00  0.00000000000E+00  0.11540197831E+04  0.11540197831E+04  0.00000000000E+00 0.  1.
       21   -1    0    0  501  503  0.00000000000E+00  0.00000000000E+00 -0.12725926197E+03  0.12725926197E+03  0.25500000920E-02 0.  1.
       25    2    1    2    0    0 -0.10733731868E+03 -0.10432076103E+03  0.10330558202E+04  0.10513005822E+04  0.12499786111E+03 0.  0.
        6    2    1    2  501    0  0.10733731868E+03  0.10432076103E+03 -0.62952991240E+01  0.22997846284E+03  0.17448880026E+03 0.  0.
       24    2    4    4    0    0  0.37386795817E+02  0.12783085945E+03  0.52625965376E+01  0.15513545831E+03  0.79377669246E+02 0.  0.
      -15    1    5    5    0    0  0.35011406841E+02  0.70455064062E+02 -0.33839186665E+02  0.85661910695E+02  0.17769999504E+01 0.  1.
       16    1    5    5    0    0  0.23753889756E+01  0.57375795387E+02  0.39101783203E+02  0.69473547618E+02  0.00000000000E+00 0. -1.
        5    1    4    4  501    0  0.69950522859E+02 -0.23510098422E+02 -0.11557895662E+02  0.74843004525E+02  0.46999998093E+01 0. -1.
        5    1    3    3  502    0 -0.51435945232E+02  0.27917052073E+00  0.12112717293E+03  0.13167997728E+03  0.46999998093E+01 0.  1.
       -5    1    3    3    0  502 -0.55901373443E+02 -0.10459993155E+03  0.91192864732E+03  0.91962060494E+03  0.46999998093E+01 0.  1.
</event>
<event>
10   0  0.1583500E-03  0.1818568E+03  0.7818609E-02  0.1177940E+00
        2   -1    0    0  503    0  0.00000000000E+00  0.00000000000E+00  0.20164498470E+04  0.20164498470E+04  0.00000000000E+00 0.  1.
       21   -1    0    0  501  503  0.00000000000E+00  0.00000000000E+00 -0.28917153338E+02  0.28917153338E+02  0.25500000920E-02 0.  1.
       25    2    1    2    0    0 -0.40395461375E+02 -0.44157813691E+02  0.16967494930E+04  0.17023994153E+04  0.12499288543E+03 0.  0.
        6    2    1    2  501    0  0.40395461375E+02  0.44157813691E+02  0.29078320064E+03  0.34296758502E+03  0.17172707646E+03 0.  0.
       24    2    4    4    0    0  0.24047242483E+02  0.94362653428E+02  0.23444007437E+03  0.26560849977E+03  0.78122637227E+02 0.  0.
      -15    1    5    5    0    0  0.39375329725E+02  0.47482646272E+02  0.67150758245E+02  0.91199782618E+02  0.17769999504E+01 0.  1.
       16    1    5    5    0    0 -0.15328087242E+02  0.46880007156E+02  0.16728931613E+03  0.17440871715E+03  0.00000000000E+00 0. -1.
        5    1    4    4  501    0  0.16348218892E+02 -0.50204839738E+02  0.56343126273E+02  0.77359085248E+02  0.46999998093E+01 0. -1.
        5    1    3    3  502    0 -0.59560013966E+02 -0.90153947805E+01  0.15163199365E+04  0.15175232824E+04  0.46999998093E+01 0. -1.
       -5    1    3    3    0  502  0.19164552591E+02 -0.35142418910E+02  0.18042955653E+03  0.18487613299E+03  0.46999998093E+01 0. -1.
</event>
<event>
10   0  0.1583500E-03  0.4162103E+03  0.7818609E-02  0.1039717E+00
       21   -1    0    0  501  503  0.00000000000E+00  0.00000000000E+00  0.90310740641E+02  0.90310740641E+02  0.00000000000E+00 0.  1.
        2   -1    0    0  503    0  0.00000000000E+00  0.00000000000E+00 -0.26220088843E+04  0.26220088843E+04  0.25500000920E-02 0.  1.
       25    2    1    2    0    0 -0.68658138186E+02  0.37312022474E+03 -0.50786157799E+03  0.64612857004E+03  0.12500441822E+03 0.  0.
        6    2    1    2  501    0  0.68658138186E+02 -0.37312022474E+03 -0.20238365657E+04  0.20661910549E+04  0.17116772115E+03 0.  0.
       24    2    4    4    0    0  0.10495050825E+03 -0.28390981566E+03 -0.14183886844E+04  0.14531128706E+04  0.89950885891E+02 0.  0.
      -15    1    5    5    0    0 -0.91755725557E+01 -0.84206296327E+02 -0.43608228290E+03  0.44423620594E+03  0.17769999504E+01 0.  1.
       16    1    5    5    0    0  0.11412608080E+03 -0.19970351933E+03 -0.98230640153E+03  0.10088766646E+04  0.00000000000E+00 0. -1.
        5    1    4    4  501    0 -0.36292370062E+02 -0.89210409082E+02 -0.60544788127E+03  0.61307818437E+03  0.46999998093E+01 0. -1.
        5    1    3    3  502    0 -0.34709117313E+01  0.73677269560E+01 -0.75382623130E+02  0.75966838140E+02  0.46999998093E+01 0. -1.
       -5    1    3    3    0  502 -0.65187226455E+02  0.36575249779E+03 -0.43247895486E+03  0.57016173190E+03  0.46999998093E+01 0. -1.
</event>
<event>
10   0  0.1583500E-03  0.1764691E+03  0.7818609E-02  0.1184515E+00
       21   -1    0    0  501  503  0.00000000000E+00  0.00000000000E+00  0.77375449403E+02  0.77375449403E+02  0.00000000000E+00 0.  1.
        2   -1    0    0  503    0  0.00000000000E+00  0.00000000000E+00 -0.32411228375E+03  0.32411228376E+03  0.25500000920E-02 0.  1.
       25    2    1    2    0    0  0.36162731306E+01  0.38581842805E+02 -0.15413508539E+03  0.20219795282E+03  0.12499900620E+03 0.  0.
        6    2    1    2  501    0 -0.36162731306E+01 -0.38581842805E+02 -0.92601748957E+02  0.19928978035E+03  0.17216183263E+03 0.  0.
       24    2    4    4    0    0  0.15735516380E+02 -0.87713243474E+02 -0.39675230331E+02  0.12437854847E+03  0.77166572176E+02 0.  0.
      -15    1    5    5    0    0 -0.52840756853E+01 -0.91785185996E+02 -0.17595296248E+02  0.93622614806E+02  0.17769999504E+01 0.  1.
       16    1    5    5    0    0  0.21019592065E+02  0.40719425220E+01 -0.22079934084E+02  0.30755933665E+02  0.00000000000E+00 0. -1.
        5    1    4    4  501    0 -0.19351789510E+02  0.49131400669E+02 -0.52926518625E+02  0.74911231874E+02  0.46999998093E+01 0. -1.
        5    1    3    3  502    0 -0.40880753466E+02  0.66294953284E+02 -0.97592973802E+02  0.12495093184E+03  0.46999998093E+01 0.  1.
       -5    1    3    3    0  502  0.44497026597E+02 -0.27713110479E+02 -0.56542111593E+02  0.77247020978E+02  0.46999998093E+01 0.  1.
</event>
<event>
10   0  0.1583500E-03  0.2963885E+03  0.7818609E-02  0.1090363E+00
       21   -1    0    0  501  503  0.00000000000E+00  0.00000000000E+00  0.23877091865E+03  0.23877091865E+03  0.00000000000E+00 0.  1.
        2   -1    0    0  503    0  0.00000000000E+00  0.00000000000E+00 -0.58383344195E+03  0.58383344196E+03  0.25500000920E-02 0. -1.
       25    2    1    2    0    0 -0.19687771825E+03 -0.13912233642E+03 -0.43506052712E+03  0.51285324040E+03  0.12499969399E+03 0.  0.
        6    2    1    2  501    0  0.19687771825E+03  0.13912233642E+03  0.89998003812E+02  0.30975112021E+03  0.17242463672E+03 0.  0.
       24    2    4    4    0    0  0.20991059935E+03  0.13658841323E+03  0.65590244483E+02  0.28157124316E+03  0.11073134361E+03 0.  0.
      -11    1    5    5    0    0  0.52059751740E+02  0.49563269034E+02  0.71280815455E+02  0.10123087494E+03  0.51099999109E-03 0.  1.
       12    1    5    5    0    0  0.15785084761E+03  0.87025144194E+02 -0.56905709726E+01  0.18034036823E+03  0.00000000000E+00 0. -1.
        5    1    4    4  501    0 -0.13032881104E+02  0.25339231872E+01  0.24407759329E+02  0.28179877045E+02  0.46999998093E+01 0. -1.
        5    1    3    3  502    0 -0.13382026128E+02 -0.70164540303E+02 -0.80805680891E+02  0.10795271836E+03  0.46999998093E+01 0.  1.
       -5    1    3    3    0  502 -0.18349569212E+03 -0.68957796113E+02 -0.35425484623E+03  0.40490052204E+03  0.46999998093E+01 0.  1.
</event>
<event>
10   0  0.1583500E-03  0.1784773E+03  0.7818609E-02  0.1182359E+00
       21   -1    0    0  501  503  0.00000000000E+00  0.00000000000E+00  0.88939495099E+02  0.88939495099E+02  0.00000000000E+00 0. -1.
        2   -1    0    0  503    0  0.00000000000E+00  0.00000000000E+00 -0.71427745729E+03  0.71427745730E+03  0.25500000920E-02 0.  1.
       25    2    1    2    0    0  0.24468596566E+02 -0.37411796826E+02 -0.60978149024E+03  0.62406299611E+03  0.12499120979E+03 0.  0.
        6    2    1    2  501    0 -0.24468596566E+02  0.37411796826E+02 -0.15556471959E+02  0.17915395628E+03  0.17278825618E+03 0.  0.
       24    2    4    4    0    0 -0.17968048052E+01  0.47179201674E+02 -0.71899456830E+02  0.11746089119E+03  0.79990146190E+02 0.  0.
      -11    1    5    5    0    0 -0.65184469463E+01 -0.22300848108E+02 -0.17236395585E+02  0.28929419454E+02  0.51099999109E-03 0.  1.
       12    1    5    5    0    0  0.47216421412E+01  0.69480049782E+02 -0.54663061244E+02  0.88531471731E+02  0.00000000000E+00 0. -1.
        5    1    4    4  501    0 -0.22671791761E+02 -0.97674048481E+01  0.56342984870E+02  0.61693065100E+02  0.46999998093E+01 0. -1.
        5    1    3    3  502    0 -0.44137864760E+02 -0.24645979679E+02 -0.39329527325E+03  0.39655874392E+03  0.46999998093E+01 0. -1.
       -5    1    3    3    0  502  0.68606461326E+02 -0.12765817147E+02 -0.21648621698E+03  0.22750425219E+03  0.46999998093E+01 0. -1.
</event>
<event>
10   0  0.1583500E-03  0.2719054E+03  0.7818609E-02  0.1104324E+00
       21   -1    0    0  501  503  0.00000000000E+00  0.00000000000E+00  0.10362122169E+03  0.10362122169E+03  0.00000000000E+00 0. -1.
        2   -1    0    0  503    0  0.00000000000E+00  0.00000000000E+00 -0.73276883085E+03  0.73276883085E+03  0.25500000920E-02 0.  1.
       25    2    1    2    0    0  0.20730308865E+03 -0.33530114929E+02 -0.44596530048E+03  0.50853595915E+03  0.12499973339E+03 0.  0.
        6    2    1    2  501    0 -0.20730308865E+03  0.33530114929E+02 -0.18318230868E+03  0.32785409339E+03  0.17272437342E+03 0.  0.
       24    2    4    4    0    0 -0.16055818074E+03 -0.37437952296E+02 -0.14844490619E+03  0.23592841629E+03  0.80285725784E+02 0.  0.
      -15    1    5    5    0    0 -0.48297696205E+02  0.79307861929E+00 -0.93438319294E+02  0.10520063533E+03  0.17769999504E+01 0.  1.
       16    1    5    5    0    0 -0.11226048454E+03 -0.38231030915E+02 -0.55006586899E+02  0.13072778096E+03  0.00000000000E+00 0. -1.
        5    1    4    4  501    0 -0.46744907903E+02  0.70968067225E+02 -0.34737402484E+02  0.91925677099E+02  0.46999998093E+01 0. -1.
        5    1    3    3  502    0  0.20135329848E+03  0.85849559647E+01 -0.36850121943E+03  0.42003820183E+03  0.46999998093E+01 0. -1.
       -5    1    3    3    0  502  0.59497901624E+01 -0.42115070894E+02 -0.77464081049E+02  0.88497757318E+02  0.46999998093E+01 0. -1.
</event>
<event>
10   0  0.1583500E-03  0.2242508E+03  0.7818609E-02  0.1138442E+00
       21   -1    0    0  501  503  0.00000000000E+00  0.00000000000E+00  0.54575758555E+03  0.54575758555E+03  0.00000000000E+00 0.  1.
       -4   -1    0    0    0  501  0.00000000000E+00  0.00000000000E+00 -0.77889110868E+02  0.77899464002E+02  0.12699999809E+01 0.  1.
       25    2    1    2    0    0  0.11029437876E+03  0.82392356764E+02  0.18054668389E+03  0.25918178944E+03  0.12499897789E+03 0.  0.
       -6    2    1    2    0  503 -0.11029437876E+03 -0.82392356764E+02  0.28732179078E+03  0.36447526011E+03  0.17701709898E+03 0.  0.
      -24    2    4    4    0    0 -0.14421281429E+03 -0.40805575368E+02  0.22974860511E+03  0.28562931942E+03  0.79606882706E+02 0.  0.
       15    1    5    5    0    0 -0.57878959756E+01  0.14619439484E+02  0.63725736500E+01  0.17058580668E+02  0.17769999504E+01 0. -1.
      -16    1    5    5    0    0 -0.13842491832E+03 -0.55425014852E+02  0.22337603146E+03  0.26857073875E+03  0.00000000000E+00 0.  1.
       -5    1    4    4    0  503  0.33918435535E+02 -0.41586781397E+02  0.57573185676E+02  0.78845940689E+02  0.46999998093E+01 0.  1.
        5    1    3    3  502    0  0.12375612302E+03  0.99129438508E+02  0.13381112056E+03  0.20753247830E+03  0.46999998093E+01 0. -1.
       -5    1    3    3    0  502 -0.13461744257E+02 -0.16737081743E+02  0.46735563330E+02  0.51649311145E+02  0.46999998093E+01 0. -1.
</event>
<event>
10   0  0.1583500E-03  0.1753700E+03  0.7818609E-02  0.1185617E+00
       21   -1    0    0  501  503  0.00000000000E+00  0.00000000000E+00  0.19677975761E+02  0.19677975761E+02  0.00000000000E+00 0.  1.
        2   -1    0    0  503    0  0.00000000000E+00  0.00000000000E+00 -0.13201839182E+04  0.13201839182E+04  0.25500000920E-02 0.  1.
       25    2    1    2    0    0 -0.14048627214E+02 -0.33250857691E+02 -0.77554464404E+03  0.78638290897E+03  0.12500240460E+03 0.  0.
        6    2    1    2  501    0  0.14048627214E+02  0.33250857691E+02 -0.52496129839E+03  0.55347898499E+03  0.17161479700E+03 0.  0.
       24    2    4    4    0    0 -0.60330315041E+02  0.31784052900E+02 -0.30847267906E+03  0.32451656260E+03  0.74199951106E+02 0.  0.
      -15    1    5    5    0    0 -0.27233021403E+02 -0.15011551616E+02 -0.44027671786E+02  0.53931231660E+02  0.17769999504E+01 0.  1.
       16    1    5    5    0    0 -0.33097293638E+02  0.46795604516E+02 -0.26444500727E+03  0.27058533094E+03  0.00000000000E+00 0. -1.
        5    1    4    4  501    0  0.74378942254E+02  0.14668047908E+01 -0.21648861934E+03  0.22896242239E+03  0.46999998093E+01 0. -1.
        5    1    3    3  502    0  0.14649498014E+02 -0.22256386662E+02 -0.73397495284E+03  0.73447346850E+03  0.46999998093E+01 0. -1.
       -5    1    3    3    0  502 -0.28698125228E+02 -0.10994471029E+02 -0.41569691198E+02  0.51909440464E+02  0.46999998093E+01 0. -1.
</event>
<event>
10   0  0.1583500E-03  0.2051927E+03  0.7818609E-02  0.1153907E+00
       21   -1    0    0  501  503  0.00000000000E+00  0.00000000000E+00  0.42946341235E+02  0.42946341235E+02  0.00000000000E+00 0.  1.
        2   -1    0    0  503    0  0.00000000000E+00  0.00000000000E+00 -0.16717172854E+04  0.16717172854E+04  0.25500000920E-02 0.  1.
       25    2    1    2    0    0 -0.95643187422E+02 -0.58283065701E+02 -0.13888928717E+04  0.13989967929E+04  0.12499632897E+03 0.  0.
        6    2    1    2  501    0  0.95643187422E+02  0.58283065701E+02 -0.23987807238E+03  0.31566683371E+03  0.17192883775E+03 0.  0.
       24    2    4    4    0    0  0.10237022263E+03  0.72849867204E+02 -0.10180515126E+03  0.17658532433E+03  0.70931814527E+02 0.  0.
      -13    1    5    5    0    0  0.63145004255E+02  0.67740737889E+02 -0.35105015911E+02  0.99037732397E+02  0.10565999895E+00 0.  1.
       14    1    5    5    0    0  0.39225218374E+02  0.51091293148E+01 -0.66700135347E+02  0.77547591930E+02  0.00000000000E+00 0. -1.
        5    1    4    4  501    0 -0.67270352072E+01 -0.14566801503E+02 -0.13807292112E+03  0.13908150939E+03  0.46999998093E+01 0. -1.
        5    1    3    3  502    0 -0.40385389210E+02  0.35440688276E+02 -0.31371488207E+03  0.31831767038E+03  0.46999998093E+01 0. -1.
       -5    1    3    3    0  502 -0.55257798212E+02 -0.93723753977E+02 -0.10751779897E+04  0.10806791225E+04  0.46999998093E+01 0. -1.
</event>
<event>
10   0  0.1583500E-03  0.1805684E+03  0.7818609E-02  0.1179151E+00
        2   -1    0    0  503    0  0.00000000000E+00  0.00000000000E+00  0.25007464073E+03  0.25007464074E+03  0.00000000000E+00 0.  1.
       21   -1    0    0  501  503  0.00000000000E+00  0.00000000000E+00 -0.11321700329E+03  0.11321700329E+03  0.25500000920E-02 0.  1.
       25    2    1    2    0    0  0.20472359806E+02 -0.54152260773E+02  0.11864632747E+03  0.18180720482E+03  0.12500129535E+03 0.  0.
        6    2    1    2  501    0 -0.20472359806E+02  0.54152260773E+02  0.18211309966E+02  0.18148443922E+03  0.17103615116E+03 0.  0.
       24    2    4    4    0    0  0.27128412282E+02 -0.27028793465E+02  0.82385220198E+01  0.86733483715E+02  0.77384220118E+02 0.  0.
      -11    1    5    5    0    0 -0.20201521430E+02 -0.31706725311E+02  0.10763700103E+02  0.39105947606E+02  0.51099999109E-03 0.  1.
       12    1    5    5    0    0  0.47329933711E+02  0.46779318459E+01 -0.25251780834E+01  0.47627536109E+02  0.00000000000E+00 0. -1.
        5    1    4    4  501    0 -0.47600772088E+02  0.81181054238E+02  0.99727879466E+01  0.94750955500E+02  0.46999998093E+01 0. -1.
        5    1    3    3  502    0 -0.51854269567E+02 -0.25339258803E+02  0.65496675866E+02  0.87423382781E+02  0.46999998093E+01 0.  1.
       -5    1    3    3    0  502  0.72326629373E+02 -0.28813001970E+02  0.53149651603E+02  0.94383822039E+02  0.46999998093E+01 0.  1.
</event>
<event>
10   0  0.1583500E-03  0.2685407E+03  0.7818609E-02  0.1106274E+00
        2   -1    0    0  503    0  0.00000000000E+00  0.00000000000E+00  0.61091648225E+03  0.61091648226E+03  0.00000000000E+00 0. -1.
       21   -1    0    0  501  503  0.00000000000E+00  0.00000000000E+00 -0.10952377723E+03  0.10952377723E+03  0.25500000920E-02 0.  1.
       25    2    1    2    0    0  0.15364779750E+03  0.13780548497E+03  0.17662342768E+03  0.29902692388E+03  0.12499307436E+03 0.  0.
        6    2    1    2  501    0 -0.15364779750E+03 -0.13780548497E+03  0.32476927734E+03  0.42141333561E+03  0.17180255692E+03 0.  0.
       24    2    4    4    0    0 -0.93328099057E+02 -0.14052343665E+03  0.15855863859E+03  0.24451246022E+03  0.78667216886E+02 0.  0.
      -13    1    5    5    0    0 -0.36586170092E+02 -0.50542466368E+02  0.11238972784E+03  0.12854785427E+03  0.10565999895E+00 0.  1.
       14    1    5    5    0    0 -0.56741928965E+02 -0.89980970278E+02  0.46168910749E+02  0.11596460596E+03  0.00000000000E+00 0. -1.
        5    1    4    4  501    0 -0.60319698440E+02  0.27179516759E+01  0.16621063875E+03  0.17690087539E+03  0.46999998093E+01 0. -1.
        5    1    3    3  502    0  0.29446707954E+02 -0.20461548520E+02  0.48369203091E+02  0.60394150238E+02  0.46999998093E+01 0.  1.
       -5    1    3    3    0  502  0.12420108954E+03  0.15826703349E+03  0.12825422459E+03  0.23863277364E+03  0.46999998093E+01 0.  1.
</event>
<event>
10   0  0.1583500E-03  0.1915902E+03  0.7818609E-02  0.1167613E+00
        2   -1    0    0  503    0  0.00000000000E+00  0.00000000000E+00  0.52758596806E+03  0.52758596807E+03  0.00000000000E+00 0. -1.
       21   -1    0    0  501  503  0.00000000000E+00  0.00000000000E+00 -0.12190671087E+03  0.12190671087E+03  0.25500000920E-02 0. -1.
       25    2    1    2    0    0 -0.10364071694E+02 -0.82120762765E+02  0.43091298267E+03  0.45624790538E+03  0.12499967550E+03 0.  0.
        6    2    1    2  501    0  0.10364071694E+02  0.82120762765E+02 -0.25233725480E+02  0.19324477356E+03  0.17278763830E+03 0.  0.
       24    2    4    4    0    0 -0.13501463002E+02 -0.30920126516E+02 -0.30906360532E+01  0.75515368554E+02  0.67488333286E+02 0.  0.
      -11    1    5    5    0    0 -0.12107205422E+02 -0.46859443897E+01  0.30337917873E+02  0.32998966030E+02  0.51099999109E-03 0.  1.
       12    1    5    5    0    0 -0.13942575797E+01 -0.26234182126E+02 -0.33428553926E+02  0.42516402524E+02  0.00000000000E+00 0. -1.
        5    1    4    4  501    0  0.23865534696E+02  0.11304088928E+03 -0.22143089427E+02  0.11772940501E+03  0.46999998093E+01 0. -1.
        5    1    3    3  502    0 -0.90663317549E+00 -0.38700563995E+02  0.40003529406E+03  0.40193143958E+03  0.46999998093E+01 0. -1.
       -5    1    3    3    0  502 -0.94574385181E+01 -0.43420198769E+02  0.30877688610E+02  0.54316465796E+02  0.46999998093E+01 0. -1.
</event>
<event>
10   0  0.1583500E-03  0.1786797E+03  0.7818609E-02  0.1181964E+00
       21   -1    0    0  501  503  0.00000000000E+00  0.00000000000E+00  0.16187230767E+03  0.16187230767E+03  0.00000000000E+00 0.  1.
        2   -1    0    0  503    0  0.00000000000E+00  0.00000000000E+00 -0.37469246509E+03  0.37469246510E+03  0.25500000920E-02 0.  1.
       25    2    1    2    0    0  0.27379017474E+02  0.37954947440E+02 -0.30687437169E+03  0.33464240940E+03  0.12499389399E+03 0.  0.
        6    2    1    2  501    0 -0.27379017474E+02 -0.37954947440E+02  0.94054214265E+02  0.20192236336E+03  0.17244203946E+03 0.  0.
       24    2    4    4    0    0 -0.27532621387E+02 -0.64977729266E+02  0.43751036193E+01  0.10814236968E+03  0.81825913049E+02 0.  0.
      -11    1    5    5    0    0  0.73375335690E+01  0.16978409663E+02  0.46676725922E+01  0.19075978644E+02  0.51099999109E-03 0.  1.
       12    1    5    5    0    0 -0.34870154956E+02 -0.81956138929E+02 -0.29256897290E+00  0.89066391032E+02  0.00000000000E+00 0. -1.
        5    1    4    4  501    0  0.15360391267E+00  0.27022781826E+02  0.89679110646E+02  0.93779993689E+02  0.46999998093E+01 0. -1.
        5    1    3    3  502    0  0.60865952891E+01 -0.46029281753E+02 -0.11083506237E+03  0.12025906398E+03  0.46999998093E+01 0. -1.
       -5    1    3    3    0  502  0.21292422185E+02  0.83984229193E+02 -0.19603930932E+03  0.21438334542E+03  0.46999998093E+01 0. -1.
</event>
<event>
10   0  0.1583500E-03  0.1944682E+03  0.7818609E-02  0.1164410E+00
       21   -1    0    0  501  503  0.00000000000E+00  0.00000000000E+00  0.26535706223E+02  0.26535706223E+02  0.00000000000E+00 0. -1.
        2   -1    0    0  503    0  0.00000000000E+00  0.00000000000E+00 -0.11549942598E+04  0.11549942598E+04  0.25500000920E-02 0. -1.
       25    2    1    2    0    0  0.76732007480E+02 -0.48041530877E+02 -0.44877863665E+03  0.47457688592E+03  0.12500066513E+03 0.  0.
        6    2    1    2  501    0 -0.76732007480E+02  0.48041530877E+02 -0.67967991697E+03  0.70695308014E+03  0.17211065721E+03 0.  0.
       24    2    4    4    0    0 -0.22744441106E+02  0.84114477957E+02 -0.32233551314E+03  0.34372721682E+03  0.81582237969E+02 0.  0.
      -15    1    5    5    0    0  0.12162250689E+02  0.68334402008E+02 -0.27052416959E+03  0.27929195281E+03  0.17769999504E+01 0.  1.
       16    1    5    5    0    0 -0.34906691795E+02  0.15780075949E+02 -0.51811343545E+02  0.64435264017E+02  0.00000000000E+00 0. -1.
        5    1    4    4  501    0 -0.53987566373E+02 -0.36072947079E+02 -0.35734440384E+03  0.36322586332E+03  0.46999998093E+01 0. -1.
        5    1    3    3  502    0  0.54576596559E+02  0.37050114705E+02 -0.20305502840E+03  0.21355268776E+03  0.46999998093E+01 0.  1.
       -5    1    3    3    0  502  0.22155410920E+02 -0.85091645582E+02 -0.24572360825E+03  0.26102419817E+03  0.46999998093E+01 0.  1.
</event>
<event>
10   0  0.1583500E-03  0.1840009E+03  0.7818609E-02  0.1175434E+00
       21   -1    0    0  501  503  0.00000000000E+00  0.00000000000E+00  0.58117690821E+02  0.58117690821E+02  0.00000000000E+00 0. -1.
        2   -1    0    0  503    0  0.00000000000E+00  0.00000000000E+00 -0.47505127425E+03  0.47505127426E+03  0.25500000920E-02 0. -1.
       25    2    1    2    0    0  0.47059216069E+02  0.46910479629E+02 -0.12947036035E+03  0.19186055527E+03  0.12503093834E+03 0.  0.
        6    2    1    2  501    0 -0.47059216069E+02 -0.46910479629E+02 -0.28746322308E+03  0.34130840981E+03  0.17158427395E+03 0.  0.
       24    2    4    4    0    0 -0.84179744696E+02 -0.13977890768E+01 -0.23726610619E+03  0.26390570192E+03  0.79138051059E+02 0.  0.
      -13    1    5    5    0    0 -0.91351716648E+01  0.26301505193E+02 -0.11095444907E+03  0.11439458672E+03  0.10565999895E+00 0.  1.
       14    1    5    5    0    0 -0.75044573031E+02 -0.27699294270E+02 -0.12631165712E+03  0.14951111520E+03  0.00000000000E+00 0. -1.
        5    1    4    4  501    0  0.37120528627E+02 -0.45512690552E+02 -0.50197116889E+02  0.77402707892E+02  0.46999998093E+01 0. -1.
        5    1    3    3  502    0  0.41292720596E+02  0.87332498537E+02 -0.10971494589E+03  0.14625837899E+03  0.46999998093E+01 0. -1.
       -5    1    3    3    0  502  0.57664954724E+01 -0.40422018908E+02 -0.19755414456E+02  0.45602176277E+02  0.46999998093E+01 0. -1.
</event>
<event>
10   0  0.1583500E-03  0.2539508E+03  0.7818609E-02  0.1115537E+00
       21   -1    0    0  501  503  0.00000000000E+00  0.00000000000E+00  0.10888160184E+03  0.10888160184E+03  0.00000000000E+00 0.  1.
        2   -1    0    0  503    0  0.00000000000E+00  0.00000000000E+00 -0.76791358381E+03  0.76791358381E+03  0.25500000920E-02 0.  1.
       25    2    1    2    0    0  0.98111696810E+02  0.15989744437E+03 -0.56096595679E+03  0.60456738182E+03  0.12500326684E+03 0.  0.
        6    2    1    2  501    0 -0.98111696810E+02 -0.15989744437E+03 -0.98066025177E+02  0.27222780383E+03  0.17116639308E+03 0.  0.
       24    2    4    4    0    0 -0.36519927009E+02 -0.64010324982E+02 -0.11338403763E+03  0.15714254294E+03  0.80042563918E+02 0.  0.
      -13    1    5    5    0    0 -0.39887318830E+01 -0.69740720282E+02 -0.50789926500E+02  0.86367272999E+02  0.10565999895E+00 0.  1.
       14    1    5    5    0    0 -0.32531195126E+02  0.57303952998E+01 -0.62594111130E+02  0.70775269938E+02  0.00000000000E+00 0. -1.
        5    1    4    4  501    0 -0.61591769801E+02 -0.95887119384E+02  0.15318012453E+02  0.11508526089E+03  0.46999998093E+01 0. -1.
        5    1    3    3  502    0 -0.24246622566E+02  0.67050810244E+02 -0.16365388230E+03  0.17857321482E+03  0.46999998093E+01 0. -1.
       -5    1    3    3    0  502  0.12235831938E+03  0.92846634122E+02 -0.39731207449E+03  0.42599416701E+03  0.46999998093E+01 0. -1.
</event>
<event>
10   0  0.1583500E-03  0.1781102E+03  0.7818609E-02  0.1182975E+00
       21   -1    0    0  501  503  0.00000000000E+00  0.00000000000E+00  0.37124814440E+02  0.37124814440E+02  0.00000000000E+00 0.  1.
        2   -1    0    0  503    0  0.00000000000E+00  0.00000000000E+00 -0.10661869912E+04  0.10661869912E+04  0.25500000920E-02 0.  1.
       25    2    1    2    0    0  0.41499676183E+02  0.11025182740E+01 -0.81158466738E+03  0.82220736004E+03  0.12502732462E+03 0.  0.
        6    2    1    2  501    0 -0.41499676183E+02 -0.11025182740E+01 -0.21747750942E+03  0.28110444565E+03  0.17320451377E+03 0.  0.
       24    2    4    4    0    0 -0.64432789657E+02  0.55319271470E+02 -0.13655164698E+03  0.17971198409E+03  0.80238636282E+02 0.  0.
      -15    1    5    5    0    0 -0.21825196158E+02 -0.15496695355E+02 -0.10134111853E+02  0.28676553247E+02  0.17769999504E+01 0.  1.
       16    1    5    5    0    0 -0.42607593499E+02  0.70815966825E+02 -0.12641753513E+03  0.15103543084E+03  0.00000000000E+00 0. -1.
        5    1    4    4  501    0  0.22933113473E+02 -0.56421789744E+02 -0.80925862444E+02  0.10139246156E+03  0.46999998093E+01 0. -1.
        5    1    3    3  502    0 -0.31095269769E+02  0.35602744549E+02 -0.21304037239E+03  0.21827221878E+03  0.46999998093E+01 0.  1.
       -5    1    3    3    0  502  0.72594945953E+02 -0.34500226275E+02 -0.59854429499E+03  0.60393514126E+03  0.46999998093E+01 0.  1.
</event>
<event>
10   0  0.1583500E-03  0.2017624E+03  0.7818609E-02  0.1160850E+00
       21   -1    0    0  501  503  0.00000000000E+00  0.00000000000E+00  0.23553973751E+03  0.23553973751E+03  0.00000000000E+00 0.  1.
       -2   -1    0    0    0  501  0.00000000000E+00  0.00000000000E+00 -0.14757587451E+03  0.14757587454E+03  0.25500000920E-02 0.  1.
       25    2    1    2    0    0 -0.24247552335E+02 -0.79452923843E+02 -0.24589001944E+02  0.15208267623E+03  0.12499524188E+03 0.  0.
       -6    2    1    2    0  503  0.24247552335E+02  0.79452923843E+02  0.11255286494E+03  0.23103293581E+03  0.18386777619E+03 0.  0.
      -24    2    4    4    0    0  0.20815056079E+02 -0.13789901791E+02  0.10558023188E+03  0.13734881671E+03  0.84226386224E+02 0.  0.
       15    1    5    5    0    0  0.29807699266E+02 -0.61436718914E+01 -0.62218906370E+00  0.30492433289E+02  0.17769999504E+01 0. -1.
      -16    1    5    5    0    0 -0.89926431875E+01 -0.76462298994E+01  0.10620242094E+03  0.10685638342E+03  0.00000000000E+00 0.  1.
       -5    1    4    4    0  503  0.34324962566E+01  0.93242825634E+02  0.69726330653E+01  0.93684119107E+02  0.46999998093E+01 0.  1.
        5    1    3    3  502    0  0.12084520472E+01 -0.69459446559E+02 -0.70084565885E+02  0.98792770212E+02  0.46999998093E+01 0.  1.
       -5    1    3    3    0  502 -0.25456004382E+02 -0.99934772841E+01  0.45495563941E+02  0.53289906022E+02  0.46999998093E+01 0.  1.
</event>
<event>
10   0  0.1583500E-03  0.1915389E+03  0.7818609E-02  0.1167577E+00
        2   -1    0    0  503    0  0.00000000000E+00  0.00000000000E+00  0.58429741772E+02  0.58429741828E+02  0.00000000000E+00 0.  1.
       21   -1    0    0  501  503  0.00000000000E+00  0.00000000000E+00 -0.68265504764E+03  0.68265504764E+03  0.25500000920E-02 0.  1.
       25    2    1    2    0    0 -0.73924142806E+02  0.38381191772E+02 -0.93605888271E+02  0.17695350804E+03  0.12495033780E+03 0.  0.
        6    2    1    2  501    0  0.73924142806E+02 -0.38381191772E+02 -0.53061941760E+03  0.56413128143E+03  0.17247968456E+03 0.  0.
       24    2    4    4    0    0  0.44466598301E+02 -0.61118874574E+02 -0.50923586772E+03  0.52095611089E+03  0.79757791548E+02 0.  0.
      -11    1    5    5    0    0 -0.73141781371E+01 -0.56848293415E+02 -0.23962241324E+03  0.24638207441E+03  0.51099999109E-03 0.  1.
       12    1    5    5    0    0  0.51780776438E+02 -0.42705811587E+01 -0.26961345448E+03  0.27457403648E+03  0.00000000000E+00 0. -1.
        5    1    4    4  501    0  0.29457544505E+02  0.22737682802E+02 -0.21383549882E+02  0.43175170541E+02  0.46999998093E+01 0. -1.
        5    1    3    3  502    0 -0.76236694414E+02  0.59003830269E+02 -0.11268875679E+03  0.14837227324E+03  0.46999998093E+01 0.  1.
       -5    1    3    3    0  502  0.23125516077E+01 -0.20622638496E+02  0.19082868518E+02  0.28581234798E+02  0.46999998093E+01 0.  1.
</event>
<event>
10   0  0.1583500E-03  0.2329400E+03  0.7818609E-02  0.1130141E+00
       21   -1    0    0  501  503  0.00000000000E+00  0.00000000000E+00  0.12611090995E+04  0.12611090995E+04  0.00000000000E+00 0.  1.
        2   -1    0    0  503    0  0.00000000000E+00  0.00000000000E+00 -0.39291037859E+02  0.39291037941E+02  0.25500000920E-02 0.  1.
       25    2    1    2    0    0  0.90479103377E+02  0.13207016355E+03  0.70165623569E+03  0.73046211731E+03  0.12499774196E+03 0.  0.
        6    2    1    2  501    0 -0.90479103377E+02 -0.13207016355E+03  0.52016182598E+03  0.56993802016E+03  0.16921000375E+03 0.  0.
       24    2    4    4    0    0 -0.84205696735E+02 -0.16227258353E+03  0.41441725743E+03  0.45968582935E+03  0.78399028790E+02 0.  0.
      -11    1    5    5    0    0  0.70977290712E+01 -0.64512598117E+02  0.12469973079E+03  0.14057836225E+03  0.51099999109E-03 0.  1.
       12    1    5    5    0    0 -0.91303425806E+02 -0.97759985416E+02  0.28971752665E+03  0.31910746710E+03  0.00000000000E+00 0. -1.
        5    1    4    4  501    0 -0.62734066421E+01  0.30202419982E+02  0.10574456854E+03  0.11025219081E+03  0.46999998093E+01 0. -1.
        5    1    3    3  502    0  0.79578152381E+02  0.43928885313E+02  0.52335300461E+03  0.53120889180E+03  0.46999998093E+01 0.  1.
       -5    1    3    3    0  502  0.10900950995E+02  0.88141278238E+02  0.17830323108E+03  0.19925322550E+03  0.46999998093E+01 0.  1.
</event>
<event>
10   0  0.1583500E-03  0.1944291E+03  0.7818609E-02  0.1164456E+00
       21   -1    0    0  501  503  0.00000000000E+00  0.00000000000E+00  0.86041473030E+01  0.86041473030E+01  0.00000000000E+00 0.  1.
        2   -1    0    0  503    0  0.00000000000E+00  0.00000000000E+00 -0.42447559105E+04  0.42447559105E+04  0.25500000920E-02 0.  1.
       25    2    1    2    0    0  0.90347296163E+02 -0.32858474391E+01 -0.27811287886E+04  0.27854041598E+04  0.12500225655E+03 0.  0.
        6    2    1    2  501    0 -0.90347296163E+02  0.32858474391E+01 -0.14550229746E+04  0.14679558980E+04  0.17213143540E+03 0.  0.
       24    2    4    4    0    0 -0.11994580938E+02  0.29998357156E+02 -0.36987060342E+03  0.37964047272E+03  0.79239219137E+02 0.  0.
      -13    1    5    5    0    0 -0.42013773813E+02  0.33932688784E+02 -0.20388632732E+03  0.21091759100E+03  0.10565999895E+00 0.  1.
       14    1    5    5    0    0  0.30019192874E+02 -0.39343316283E+01 -0.16598427609E+03  0.16872288172E+03  0.00000000000E+00 0. -1.
        5    1    4    4  501    0 -0.78352715225E+02 -0.26712509717E+02 -0.10851523712E+04  0.10883154253E+04  0.46999998093E+01 0. -1.
        5    1    3    3  502    0 -0.14443654496E+02  0.15944652166E+01 -0.14692295101E+04  0.14693088868E+04  0.46999998093E+01 0.  1.
       -5    1    3    3    0  502  0.10479095066E+03 -0.48803126557E+01 -0.13118992785E+04  0.13160952731E+04  0.46999998093E+01 0.  1.
</event>
<event>
10   0  0.1583500E-03  0.2161577E+03  0.7818609E-02  0.1144179E+00
       21   -1    0    0  501  503  0.00000000000E+00  0.00000000000E+00  0.12900472770E+03  0.12900472770E+03  0.00000000000E+00 0. -1.
        2   -1    0    0  503    0  0.00000000000E+00  0.00000000000E+00 -0.31986931411E+03  0.31986931412E+03  0.25500000920E-02 0. -1.
       25    2    1    2    0    0  0.11327626711E+03 -0.65166733244E+02 -0.39859554256E+02  0.18519491115E+03  0.12502061926E+03 0.  0.
        6    2    1    2  501    0 -0.11327626711E+03  0.65166733244E+02 -0.15100503215E+03  0.26367913068E+03  0.17217998840E+03 0.  0.
       24    2    4    4    0    0 -0.12781014953E+03  0.17565283070E+02 -0.65028946253E+02  0.16422507524E+03  0.78084172498E+02 0.  0.
      -11    1    5    5    0    0 -0.49021454200E+02  0.44434600113E+02 -0.39934015752E+02  0.77280413259E+02  0.51099999109E-03 0.  1.
       12    1    5    5    0    0 -0.78788695333E+02 -0.26869317043E+02 -0.25094930501E+02  0.86944661984E+02  0.00000000000E+00 0. -1.
        5    1    4    4  501    0  0.14533882428E+02  0.47601450174E+02 -0.85976085900E+02  0.99454055433E+02  0.46999998093E+01 0. -1.
        5    1    3    3  502    0  0.79331812382E+01  0.11821011403E+02  0.32594172062E+02  0.35876757459E+02  0.46999998093E+01 0.  1.
       -5    1    3    3    0  502  0.10534308587E+03 -0.76987744647E+02 -0.72453726318E+02  0.14931815369E+03  0.46999998093E+01 0.  1.
</event>
<event>
10   0  0.1583500E-03  0.2060369E+03  0.7818609E-02  0.1152886E+00
       21   -1    0    0  501  503  0.00000000000E+00  0.00000000000E+00  0.18478002533E+03  0.18478002533E+03  0.00000000000E+00 0. -1.
        2   -1    0    0  503    0  0.00000000000E+00  0.00000000000E+00 -0.20957131286E+03  0.20957131287E+03  0.25500000920E-02 0. -1.
       25    2    1    2    0    0  0.14406189533E+02 -0.11404124859E+03 -0.69556326928E+02  0.18350752089E+03  0.12499593166E+03 0.  0.
        6    2    1    2  501    0 -0.14406189533E+02  0.11404124859E+03  0.44765039397E+02  0.21084381731E+03  0.17099199358E+03 0.  0.
       24    2    4    4    0    0 -0.57991997825E+02  0.17998316000E+02  0.22738624858E+02  0.10299568093E+03  0.80025333730E+02 0.  0.
      -11    1    5    5    0    0 -0.54213262320E+02  0.40561937303E+02 -0.39750942118E+01  0.67824405220E+02  0.51099999109E-03 0.  1.
       12    1    5    5    0    0 -0.37787355045E+01 -0.22563621303E+02  0.26713719070E+02  0.35171275707E+02  0.00000000000E+00 0. -1.
        5    1    4    4  501    0  0.43585808292E+02  0.96042932594E+02  0.22026414539E+02  0.10784813638E+03  0.46999998093E+01 0. -1.
        5    1    3    3  502    0 -0.13556941119E+02  0.57285377079E+01 -0.57843069842E+02  0.59870840346E+02  0.46999998093E+01 0.  1.
       -5    1    3    3    0  502  0.27963130652E+02 -0.11976978630E+03 -0.11713257086E+02  0.12363668055E+03  0.46999998093E+01 0.  1.
</event>
<event>
10   0  0.1583500E-03  0.1962212E+03  0.7818609E-02  0.1162598E+00
        2   -1    0    0  503    0  0.00000000000E+00  0.00000000000E+00  0.14635515612E+04  0.14635515612E+04  0.00000000000E+00 0.  1.
       21   -1    0    0  501  503  0.00000000000E+00  0.00000000000E+00 -0.62742108459E+02  0.62742108459E+02  0.25500000920E-02 0.  1.
       25    2    1    2    0    0 -0.53691451643E+02 -0.77702155476E+02  0.12928998944E+04  0.13023579266E+04  0.12500254054E+03 0.  0.
        6    2    1    2  501    0  0.53691451643E+02  0.77702155476E+02  0.10790955835E+03  0.22393574306E+03  0.17199519554E+03 0.  0.
       24    2    4    4    0    0  0.95243426250E+02  0.46291837518E+02  0.38287803974E+02  0.13685845928E+03  0.77781986860E+02 0.  0.
      -11    1    5    5    0    0  0.87088355819E+01  0.38839388370E+02 -0.44615907512E+01  0.40053061037E+02  0.51099999109E-03 0.  1.
       12    1    5    5    0    0  0.86534590668E+02  0.74524491480E+01  0.42749394725E+02  0.96805398247E+02  0.00000000000E+00 0. -1.
        5    1    4    4  501    0 -0.41551974607E+02  0.31410317958E+02  0.69621754380E+02  0.87077283772E+02  0.46999998093E+01 0. -1.
        5    1    3    3  502    0 -0.84297380025E+01 -0.76166595082E+01  0.78352182626E+01  0.14579253351E+02  0.46999998093E+01 0. -1.
       -5    1    3    3    0  502 -0.45261713640E+02 -0.70085495968E+02  0.12850646761E+04  0.12877786733E+04  0.46999998093E+01 0. -1.
</event>
<event>
10   0  0.1583500E-03  0.1736213E+03  0.7818609E-02  0.1187380E+00
       21   -1    0    0  501  503  0.00000000000E+00  0.00000000000E+00  0.30067860366E+02  0.30067860366E+02  0.00000000000E+00 0. -1.
        2   -1    0    0  503    0  0.00000000000E+00  0.00000000000E+00 -0.10277138178E+04  0.10277138178E+04  0.25500000920E-02 0. -1.
       25    2    1    2    0    0  0.19112629972E+02  0.25187115157E+02 -0.71146186740E+03  0.72304942529E+03  0.12499119666E+03 0.  0.
        6    2    1    2  501    0 -0.19112629972E+02 -0.25187115157E+02 -0.28618409003E+03  0.33473225288E+03  0.17071808439E+03 0.  0.
       24    2    4    4    0    0  0.47241827238E+02  0.17435687137E+02 -0.14369977795E+03  0.17181053409E+03  0.79582912830E+02 0.  0.
      -15    1    5    5    0    0  0.38228682558E+02 -0.33797505892E+01 -0.14409025519E+03  0.14912415718E+03  0.17769999504E+01 0.  1.
       16    1    5    5    0    0  0.90131446793E+01  0.20815437727E+02  0.39047724409E+00  0.22686376909E+02  0.00000000000E+00 0. -1.
        5    1    4    4  501    0 -0.66354457210E+02 -0.42622802294E+02 -0.14248431208E+03  0.16292171879E+03  0.46999998093E+01 0. -1.
        5    1    3    3  502    0  0.50286827834E+02 -0.31707222920E+02 -0.43325958135E+03  0.43734433559E+03  0.46999998093E+01 0. -1.
       -5    1    3    3    0  502 -0.31174197862E+02  0.56894338076E+02 -0.27820228605E+03  0.28570508970E+03  0.46999998093E+01 0. -1.
</event>
<event>
10   0  0.1583500E-03  0.1908487E+03  0.7818609E-02  0.1167928E+00
       21   -1    0    0  501  503  0.00000000000E+00  0.00000000000E+00  0.29637711406E+02  0.29637711406E+02  0.00000000000E+00 0.  1.
       -2   -1    0    0    0  501  0.00000000000E+00  0.00000000000E+00 -0.10260002293E+04  0.10260002293E+04  0.25500000920E-02 0. -1.
       25    2    1    2    0    0 -0.39376150203E+02 -0.74164904772E+02 -0.54877389130E+03  0.56905925817E+03  0.12499896491E+03 0.  0.
       -6    2    1    2    0  503  0.39376150203E+02  0.74164904772E+02 -0.44758862661E+03  0.48657868256E+03  0.17138355039E+03 0.  0.
      -24    2    4    4    0    0  0.79546153089E+02  0.80623782066E+02 -0.25841462613E+03  0.29302187259E+03  0.79094336799E+02 0.  0.
       13    1    5    5    0    0  0.16003115939E+02  0.70916603377E+02 -0.11807494597E+03  0.13866134423E+03  0.10565999895E+00 0. -1.
      -14    1    5    5    0    0  0.63543037150E+02  0.97071786895E+01 -0.14033968016E+03  0.15436052836E+03  0.00000000000E+00 0.  1.
       -5    1    4    4    0  503 -0.40170002886E+02 -0.64588772948E+01 -0.18917400049E+03  0.19355680997E+03  0.46999998093E+01 0.  1.
        5    1    3    3  502    0  0.36149498478E+02  0.71446370070E+01 -0.18553623146E+03  0.18921843266E+03  0.46999998093E+01 0. -1.
       -5    1    3    3    0  502 -0.75525648680E+02 -0.81309541779E+02 -0.36323765984E+03  0.37984082550E+03  0.46999998093E+01 0. -1.
</event>
<event>
10   0  0.1583500E-03  0.1924450E+03  0.7818609E-02  0.1166974E+00
       21   -1    0    0  501  503  0.00000000000E+00  0.00000000000E+00  0.20933034398E+03  0.20933034398E+03  0.00000000000E+00 0.  1.
        2   -1    0    0  503    0  0.00000000000E+00  0.00000000000E+00 -0.72400920630E+03  0.72400920630E+03  0.25500000920E-02 0.  1.
       25    2    1    2    0    0  0.80750884606E+02 -0.19777361435E+02 -0.66963952294E+03  0.68626083759E+03  0.12499998857E+03 0.  0.
        6    2    1    2  501    0 -0.80750884606E+02  0.19777361435E+02  0.15496066062E+03  0.24707871269E+03  0.17356046363E+03 0.  0.
       24    2    4    4    0    0 -0.60476224913E+02 -0.19415332587E+02  0.20339510717E+02  0.10533220272E+03  0.81528205635E+02 0.  0.
      -13    1    5    5    0    0 -0.25941561146E+02 -0.50144784660E+02  0.17105489379E+02  0.58992143157E+02  0.10565999895E+00 0.  1.
       14    1    5    5    0    0 -0.34534663766E+02  0.30729452073E+02  0.32340213382E+01  0.46340059561E+02  0.00000000000E+00 0. -1.
        5    1    4    4  501    0 -0.20274659693E+02  0.39192694022E+02  0.13462114990E+03  0.14174650997E+03  0.46999998093E+01 0. -1.
        5    1    3    3  502    0  0.75039610905E+02  0.27863168557E+02 -0.56953453995E+03  0.57515126842E+03  0.46999998093E+01 0.  1.
       -5    1    3    3    0  502  0.57112737009E+01 -0.47640529992E+02 -0.10010498299E+03  0.11110956917E+03  0.46999998093E+01 0.  1.
</event>
<event>
10   0  0.1583500E-03  0.1946318E+03  0.7818609E-02  0.1164754E+00
       21   -1    0    0  501  503  0.00000000000E+00  0.00000000000E+00  0.26796934656E+03  0.26796934656E+03  0.00000000000E+00 0. -1.
       -2   -1    0    0    0  501  0.00000000000E+00  0.00000000000E+00 -0.14179489784E+03  0.14179489787E+03  0.25500000920E-02 0. -1.
       25    2    1    2    0    0 -0.23692539133E+02  0.84506224948E+02 -0.35428645247E+02  0.15678779548E+03  0.12499834175E+03 0.  0.
       -6    2    1    2    0  503  0.23692539133E+02 -0.84506224948E+02  0.16160309397E+03  0.25297644895E+03  0.17372071056E+03 0.  0.
      -24    2    4    4    0    0 -0.24529197611E+02 -0.97108538676E+02  0.69061358578E+02  0.14776135026E+03  0.83858187210E+02 0.  0.
       11    1    5    5    0    0  0.19109756635E+02 -0.75083070921E+02  0.60123190526E+02  0.98068590164E+02  0.51099999109E-03 0. -1.
      -12    1    5    5    0    0 -0.43638954247E+02 -0.22025467755E+02  0.89381680527E+01  0.49692760094E+02  0.00000000000E+00 0.  1.
       -5    1    4    4    0  503  0.48221736744E+02  0.12602313728E+02  0.92541735389E+02  0.10521509869E+03  0.46999998093E+01 0.  1.
        5    1    3    3  502    0 -0.43194627376E+02  0.10978538560E+03 -0.16080918996E+02  0.11916078499E+03  0.46999998093E+01 0.  1.
       -5    1    3    3    0  502  0.19502088243E+02 -0.25279160650E+02 -0.19347726251E+02  0.37627010489E+02  0.46999998093E+01 0.  1.
</event>
<event>
10   0  0.1583500E-03  0.2706217E+03  0.7818609E-02  0.1105111E+00
       21   -1    0    0  501  503  0.00000000000E+00  0.00000000000E+00  0.11656153666E+03  0.11656153666E+03  0.00000000000E+00 0.  1.
        2   -1    0    0  503    0  0.00000000000E+00  0.00000000000E+00 -0.76063126977E+03  0.76063126978E+03  0.25500000920E-02 0.  1.
       25    2    1    2    0    0  0.12820403555E+03  0.16415494777E+03 -0.53095167902E+03  0.58388100061E+03  0.12499686323E+03 0.  0.
        6    2    1    2  501    0 -0.12820403555E+03 -0.16415494777E+03 -0.11311805410E+03  0.29331180582E+03  0.17278020623E+03 0.  0.
       24    2    4    4    0    0 -0.96788016814E+02 -0.54940287775E+02 -0.11660990789E+03  0.17951773203E+03  0.79008797438E+02 0.  0.
      -15    1    5    5    0    0  0.12103941709E+02  0.23940987267E+01 -0.17610696557E+02  0.21576178430E+02  0.17769999504E+01 0.  1.
       16    1    5    5    0    0 -0.10889195852E+03 -0.57334386502E+02 -0.98999211338E+02  0.15794155359E+03  0.00000000000E+00 0. -1.
        5    1    4    4  501    0 -0.31416018734E+02 -0.10921465999E+03  0.34918537978E+01  0.11379407380E+03  0.46999998093E+01 0. -1.
        5    1    3    3  502    0  0.14165010189E+03  0.13157131425E+03 -0.50221139924E+03  0.53815810096E+03  0.46999998093E+01 0.  1.
       -5    1    3    3    0  502 -0.13446066341E+02  0.32583633517E+02 -0.28740279776E+02  0.45722899656E+02  0.46999998093E+01 0.  1.
</event>
<event>
10   0  0.1583500E-03  0.1807857E+03  0.7818609E-02  0.1179335E+00
       21   -1    0    0  501  503  0.00000000000E+00  0.00000000000E+00  0.36086575916E+02  0.36086575916E+02  0.00000000000E+00 0. -1.
        2   -1    0    0  503    0  0.00000000000E+00  0.00000000000E+00 -0.18100658054E+04  0.18100658054E+04  0.25500000920E-02 0. -1.
       25    2    1    2    0    0 -0.43521148526E+02  0.34120693719E+02 -0.15602109429E+04  0.15661874647E+04  0.12500670513E+03 0.  0.
        6    2    1    2  501    0  0.43521148526E+02 -0.34120693719E+02 -0.21376828664E+03  0.27996491661E+03  0.17211961553E+03 0.  0.
       24    2    4    4    0    0 -0.13964334033E+02  0.15615694443E+02 -0.18615711855E+03  0.19895408021E+03  0.67002990293E+02 0.  0.
      -15    1    5    5    0    0  0.44075719680E+01  0.29291158821E+02 -0.34193172565E+02  0.45273937918E+02  0.17769999504E+01 0.  1.
       16    1    5    5    0    0 -0.18371906001E+02 -0.13675464379E+02 -0.15196394598E+03  0.15368014229E+03  0.00000000000E+00 0. -1.
        5    1    4    4  501    0  0.57485482560E+02 -0.49736388162E+02 -0.27611168090E+02  0.81010836399E+02  0.46999998093E+01 0. -1.
        5    1    3    3  502    0  0.27404807521E+02 -0.29446841404E+02 -0.54803894471E+03  0.54953336100E+03  0.46999998093E+01 0. -1.
       -5    1    3    3    0  502 -0.70925956047E+02  0.63567535124E+02 -0.10121719982E+04  0.10166541037E+04  0.46999998093E+01 0. -1.
</event>
<event>
10   0  0.1583500E-03  0.1819989E+03  0.7818609E-02  0.1178235E+00
        2   -1    0    0  503    0  0.00000000000E+00  0.00000000000E+00  0.72408760755E+03  0.72408760755E+03  0.00000000000E+00 0. -1.
       21   -1    0    0  501  503  0.00000000000E+00  0.00000000000E+00 -0.11926282900E+03  0.11926282900E+03  0.25500000920E-02 0. -1.
       25    2    1    2    0    0 -0.44178856908E+02  0.35846758714E+02  0.64290458674E+03  0.65741048434E+03  0.12500190303E+03 0.  0.
        6    2    1    2  501    0  0.44178856908E+02 -0.35846758714E+02 -0.38079808191E+02  0.18593995221E+03  0.17287808574E+03 0.  0.
       24    2    4    4    0    0 -0.20663366751E+02 -0.23177196727E+02 -0.76689413398E+02  0.10927298812E+03  0.71380407901E+02 0.  0.
      -15    1    5    5    0    0  0.10250875770E+02 -0.31692239624E+02 -0.92758870879E+01  0.34621934038E+02  0.17769999504E+01 0.  1.
       16    1    5    5    0    0 -0.30914242521E+02  0.85150428976E+01 -0.67413526311E+02  0.74651054084E+02  0.00000000000E+00 0. -1.
        5    1    4    4  501    0  0.64842223659E+02 -0.12669561987E+02  0.38609605207E+02  0.76666964088E+02  0.46999998093E+01 0. -1.
        5    1    3    3  502    0 -0.54694754823E+02  0.73075729669E+02  0.34237038201E+03  0.35436019380E+03  0.46999998093E+01 0. -1.
       -5    1    3    3    0  502  0.10515897915E+02 -0.37228970955E+02  0.30053420473E+03  0.30305029055E+03  0.46999998093E+01 0. -1.
</event>
<event>
10   0  0.1583500E-03  0.1811872E+03  0.7818609E-02  0.1178550E+00
       21   -1    0    0  501  503  0.00000000000E+00  0.00000000000E+00  0.75050432520E+02  0.75050432520E+02  0.00000000000E+00 0. -1.
        2   -1    0    0  503    0  0.00000000000E+00  0.00000000000E+00 -0.38377780637E+03  0.38377780638E+03  0.25500000920E-02 0. -1.
       25    2    1    2    0    0  0.39957411468E+02 -0.43363781032E+02 -0.58954123076E+02  0.15025819787E+03  0.12499970065E+03 0.  0.
        6    2    1    2  501    0 -0.39957411468E+02  0.43363781032E+02 -0.24977325077E+03  0.30857004103E+03  0.17132361537E+03 0.  0.
       24    2    4    4    0    0 -0.91858327970E+02  0.42791939247E+02 -0.17424205598E+03  0.21680357917E+03  0.79839810794E+02 0.  0.
      -15    1    5    5    0    0 -0.86492401385E+02  0.77175791660E+01 -0.15158447285E+03  0.17470405451E+03  0.17769999504E+01 0.  1.
       16    1    5    5    0    0 -0.53659265851E+01  0.35074360081E+02 -0.22657583131E+02  0.42099524659E+02  0.00000000000E+00 0. -1.
        5    1    4    4  501    0  0.51900916502E+02  0.57184178492E+00 -0.75531194795E+02  0.91766461859E+02  0.46999998093E+01 0. -1.
        5    1    3    3  502    0  0.41432606228E+02 -0.70404935426E+02 -0.80914009444E+02  0.11507685568E+03  0.46999998093E+01 0.  1.
       -5    1    3    3    0  502 -0.14751947595E+01  0.27041154395E+02  0.21959886367E+02  0.35181342187E+02  0.46999998093E+01 0.  1.
</event>
<event>
10   0  0.1583500E-03  0.1849540E+03  0.7818609E-02  0.1174962E+00
        2   -1    0    0  503    0  0.00000000000E+00  0.00000000000E+00  0.14471564644E+04  0.14471564644E+04  0.00000000000E+00 0. -1.
       21   -1    0    0  501  503  0.00000000000E+00  0.00000000000E+00 -0.26309977443E+02  0.26309977443E+02  0.25500000920E-02 0. -1.
       25    2    1    2    0    0 -0.64494449356E+02 -0.85600904242E+01  0.10462623758E+04  0.10557090551E+04  0.12499536319E+03 0.  0.
        6    2    1    2  501    0  0.64494449356E+02  0.85600904242E+01  0.37458411114E+03  0.41775738674E+03  0.17313338418E+03 0.  0.
       24    2    4    4    0    0  0.96593231612E+02  0.47495133739E+02  0.27330497437E+03  0.30450623680E+03  0.80264557030E+02 0.  0.
      -15    1    5    5    0    0  0.92192821687E+02  0.43826885579E+02  0.15223147777E+03  0.18329727991E+03  0.17769999504E+01 0.  1.
       16    1    5    5    0    0  0.44004099251E+01  0.36682481603E+01  0.12107349660E+03  0.12120895689E+03  0.00000000000E+00 0. -1.
        5    1    4    4  501    0 -0.32098782256E+02 -0.38935043315E+02  0.10127913677E+03  0.11325114994E+03  0.46999998093E+01 0. -1.
        5    1    3    3  502    0 -0.47354464749E+02 -0.65451212063E+02  0.56332288508E+03  0.56910549931E+03  0.46999998093E+01 0. -1.
       -5    1    3    3    0  502 -0.17139984607E+02  0.56891121639E+02  0.48293949077E+03  0.48660355582E+03  0.46999998093E+01 0. -1.
</event>
<event>
10   0  0.1583500E-03  0.1890149E+03  0.7818609E-02  0.1169775E+00
        2   -1    0    0  503    0  0.00000000000E+00  0.00000000000E+00  0.78254996961E+03  0.78254996961E+03  0.00000000000E+00 0. -1.
       21   -1    0    0  501  503  0.00000000000E+00  0.00000000000E+00 -0.57888516838E+02  0.57888516838E+02  0.25500000920E-02 0. -1.
       25    2    1    2    0    0 -0.82598466917E+01  0.79912845293E+02  0.58984253161E+03  0.60826880164E+03  0.12498973976E+03 0.  0.
        6    2    1    2  501    0  0.82598466917E+01 -0.79912845293E+02  0.13481892116E+03  0.23216968481E+03  0.17109159281E+03 0.  0.
       24    2    4    4    0    0  0.88009632189E+00 -0.11470930819E+03  0.13797979410E+03  0.19615113873E+03  0.79232857389E+02 0.  0.
      -11    1    5    5    0    0 -0.15633094847E+02 -0.26698181438E+00  0.45431544048E+02  0.48046749407E+02  0.51099999109E-03 0.  1.
       12    1    5    5    0    0  0.16513191169E+02 -0.11444232638E+03  0.92548250053E+02  0.14810438932E+03  0.00000000000E+00 0. -1.
        5    1    4    4  501    0  0.73797503698E+01  0.34796462896E+02 -0.31608729397E+01  0.36018546078E+02  0.46999998093E+01 0. -1.
        5    1    3    3  502    0  0.18562217185E+02  0.63570320491E+02  0.11828894506E+03  0.13564699066E+03  0.46999998093E+01 0. -1.
       -5    1    3    3    0  502 -0.26822063877E+02  0.16342524802E+02  0.47155358655E+03  0.47262181098E+03  0.46999998093E+01 0. -1.
</event>
<event>
10   0  0.1583500E-03  0.1751137E+03  0.7818609E-02  0.1185339E+00
       21   -1    0    0  501  503  0.00000000000E+00  0.00000000000E+00  0.37054909147E+02  0.37054909147E+02  0.00000000000E+00 0.  1.
        2   -1    0    0  503    0  0.00000000000E+00  0.00000000000E+00 -0.10674758409E+04  0.10674758409E+04  0.25500000920E-02 0.  1.
       25    2    1    2    0    0  0.37743050521E+02 -0.15508833914E+02 -0.82136430837E+03  0.83182305756E+03  0.12500084098E+03 0.  0.
        6    2    1    2  501    0 -0.37743050521E+02  0.15508833914E+02 -0.20905662338E+03  0.27270769248E+03  0.17029313541E+03 0.  0.
       24    2    4    4    0    0 -0.44251907425E+02 -0.34908158377E+02 -0.55460523682E+02  0.11084945151E+03  0.77684749987E+02 0.  0.
      -15    1    5    5    0    0  0.14149836899E+02  0.13616784749E+02 -0.15264098809E+02  0.24935620154E+02  0.17769999504E+01 0.  1.
       16    1    5    5    0    0 -0.58401744323E+02 -0.48524943127E+02 -0.40196424873E+02  0.85913831355E+02  0.00000000000E+00 0. -1.
        5    1    4    4  501    0  0.65088569040E+01  0.50416992291E+02 -0.15359609970E+03  0.16185824097E+03  0.46999998093E+01 0. -1.
        5    1    3    3  502    0  0.12408356087E+02  0.51487251671E+02 -0.48370467248E+03  0.48661813012E+03  0.46999998093E+01 0.  1.
       -5    1    3    3    0  502  0.25334694433E+02 -0.66996085585E+02 -0.33765963589E+03  0.34520492745E+03  0.46999998093E+01 0.  1.
</event>
<event>
10   0  0.1583500E-03  0.2369998E+03  0.7818609E-02  0.1127439E+00
       21   -1    0    0  501  503  0.00000000000E+00  0.00000000000E+00  0.12117235241E+04  0.12117235241E+04  0.00000000000E+00 0. -1.
       -4   -1    0    0    0  501  0.00000000000E+00  0.00000000000E+00 -0.42500417423E+02  0.42519388296E+02  0.12699999809E+01 0.  1.
       25    2    1    2    0    0  0.83436016662E+02  0.14104381922E+03  0.41004366152E+03  0.45893019601E+03  0.12500477048E+03 0.  0.
       -6    2    1    2    0  503 -0.83436016662E+02 -0.14104381922E+03  0.75917944520E+03  0.79531271643E+03  0.17121319774E+03 0.  0.
      -24    2    4    4    0    0 -0.11049585154E+03 -0.55250259372E+02  0.46779479440E+03  0.49032111934E+03  0.79504125890E+02 0.  0.
       15    1    5    5    0    0 -0.90036009770E+02 -0.66757477786E+02  0.43942964169E+03  0.45350260377E+03  0.17769999504E+01 0. -1.
      -16    1    5    5    0    0 -0.20459841770E+02  0.11507218414E+02  0.28365152710E+02  0.36818515575E+02  0.00000000000E+00 0.  1.
       -5    1    4    4    0  503  0.27059834878E+02 -0.85793559845E+02  0.29138465080E+03  0.30499159708E+03  0.46999998093E+01 0.  1.
        5    1    3    3  502    0  0.50171170274E+02  0.18097209515E+02  0.24292821464E+03  0.24875864364E+03  0.46999998093E+01 0. -1.
       -5    1    3    3    0  502  0.33264846388E+02  0.12294660970E+03  0.16711544688E+03  0.21017155237E+03  0.46999998093E+01 0. -1.
</event>
<event>
10   0  0.1583500E-03  0.1812857E+03  0.7818609E-02  0.1178651E+00
       21   -1    0    0  501  503  0.00000000000E+00  0.00000000000E+00  0.42228569369E+02  0.42228569369E+02  0.00000000000E+00 0. -1.
        2   -1    0    0  503    0  0.00000000000E+00  0.00000000000E+00 -0.11309320050E+04  0.11309320050E+04  0.25500000920E-02 0. -1.
       25    2    1    2    0    0  0.24550565688E+02  0.52202690400E+02 -0.90375699896E+03  0.91418242170E+03  0.12499974325E+03 0.  0.
        6    2    1    2  501    0 -0.24550565688E+02 -0.52202690400E+02 -0.18494643670E+03  0.25897815270E+03  0.17186229362E+03 0.  0.
       24    2    4    4    0    0  0.28096792931E+02 -0.41722407203E+02 -0.18170738258E+03  0.20499517228E+03  0.80468992387E+02 0.  0.
      -11    1    5    5    0    0 -0.20442204963E+02 -0.24059397824E+02 -0.12212768965E+03  0.12614242326E+03  0.51099999109E-03 0.  1.
       12    1    5    5    0    0  0.48538997894E+02 -0.17663009379E+02 -0.59579692933E+02  0.78852749013E+02  0.00000000000E+00 0. -1.
        5    1    4    4  501    0 -0.52647358619E+02 -0.10480283197E+02 -0.32390541129E+01  0.53982980421E+02  0.46999998093E+01 0. -1.
        5    1    3    3  502    0 -0.10002216055E+01  0.39955350621E+02 -0.86503801725E+03  0.86597360916E+03  0.46999998093E+01 0. -1.
       -5    1    3    3    0  502  0.25550787293E+02  0.12247339779E+02 -0.38718981717E+02  0.48208812538E+02  0.46999998093E+01 0. -1.
</event>
<event>
10   0  0.1583500E-03  0.2223177E+03  0.7818609E-02  0.1139463E+00
       21   -1    0    0  501  503  0.00000000000E+00  0.00000000000E+00  0.14289636418E+03  0.14289636418E+03  0.00000000000E+00 0.  1.
        2   -1    0    0  503    0  0.00000000000E+00  0.00000000000E+00 -0.29202387087E+03  0.29202387088E+03  0.25500000920E-02 0.  1.
       25    2    1    2    0    0  0.64223006655E+02 -0.12213899896E+03 -0.64850525557E+02  0.19716457831E+03  0.12500300247E+03 0.  0.
        6    2    1    2  501    0 -0.64223006655E+02  0.12213899896E+03 -0.84276981129E+02  0.23775565674E+03  0.17430609030E+03 0.  0.
       24    2    4    4    0    0 -0.52927673966E+02  0.11529795134E+03 -0.12276199874E+03  0.19679749453E+03  0.86970048089E+02 0.  0.
      -13    1    5    5    0    0 -0.76671053167E+02  0.81608259714E+02 -0.81646111810E+02  0.13858014715E+03  0.10565999895E+00 0.  1.
       14    1    5    5    0    0  0.23743379201E+02  0.33689691626E+02 -0.41115886929E+02  0.58217347378E+02  0.00000000000E+00 0. -1.
        5    1    4    4  501    0 -0.11295332688E+02  0.68410476180E+01  0.38485017611E+02  0.40958162212E+02  0.46999998093E+01 0. -1.
        5    1    3    3  502    0  0.15332295436E+02 -0.42864202432E+02  0.37158940069E+02  0.58951640848E+02  0.46999998093E+01 0.  1.
       -5    1    3    3    0  502  0.48890711218E+02 -0.79274796525E+02 -0.10200946563E+03  0.13821293747E+03  0.46999998093E+01 0.  1.
</event>
<event>
10   0  0.1583500E-03  0.2212686E+03  0.7818609E-02  0.1139505E+00
       21   -1    0    0  501  503  0.00000000000E+00  0.00000000000E+00  0.70369988146E+02  0.70369988146E+02  0.00000000000E+00 0. -1.
        2   -1    0    0  503    0  0.00000000000E+00  0.00000000000E+00 -0.19337856420E+04  0.19337856420E+04  0.25500000920E-02 0.  1.
       25    2    1    2    0    0 -0.13729951742E+03  0.33436563914E+02 -0.17411740474E+04  0.17513655775E+04  0.12500064493E+03 0.  0.
        6    2    1    2  501    0  0.13729951742E+03 -0.33436563914E+02 -0.12224160638E+03  0.25279005263E+03  0.17026637686E+03 0.  0.
       24    2    4    4    0    0  0.23420432146E+02 -0.23946592697E+02 -0.17460130274E+01  0.86658226564E+02  0.79903965647E+02 0.  0.
      -11    1    5    5    0    0  0.33281526659E+02 -0.49273299873E+02 -0.14489653010E+01  0.59477874860E+02  0.51099999109E-03 0.  1.
       12    1    5    5    0    0 -0.98610945134E+01  0.25326707177E+02 -0.29704772639E+00  0.27180351704E+02  0.00000000000E+00 0. -1.
        5    1    4    4  501    0  0.11387908527E+03 -0.94899712173E+01 -0.12049559336E+03  0.16613182607E+03  0.46999998093E+01 0. -1.
        5    1    3    3  502    0 -0.10929842673E+03  0.22339890579E+02 -0.16725789000E+04  0.16763017281E+04  0.46999998093E+01 0. -1.
       -5    1    3    3    0  502 -0.28001090685E+02  0.11096673335E+02 -0.68595147411E+02  0.75063849390E+02  0.46999998093E+01 0. -1.
</event>
<event>
10   0  0.1583500E-03  0.2062479E+03  0.7818609E-02  0.1151827E+00
       21   -1    0    0  501  503  0.00000000000E+00  0.00000000000E+00  0.77765239727E+02  0.77765239727E+02  0.00000000000E+00 0.  1.
        2   -1    0    0  503    0  0.00000000000E+00  0.00000000000E+00 -0.11539901973E+04  0.11539901973E+04  0.25500000920E-02 0. -1.
       25    2    1    2    0    0 -0.11027141071E+03 -0.48346900102E+02 -0.99510100854E+03  0.10101267139E+04  0.12503101291E+03 0.  0.
        6    2    1    2  501    0  0.11027141071E+03  0.48346900102E+02 -0.81123949055E+02  0.22162872314E+03  0.16745443870E+03 0.  0.
       24    2    4    4    0    0  0.10938548132E+03  0.81871379017E+02 -0.95468425945E+02  0.18485196998E+03  0.79924490797E+02 0.  0.
      -11    1    5    5    0    0  0.31291188313E+02 -0.74604849580E+01  0.61294615735E+00  0.32174104573E+02  0.51099999109E-03 0.  1.
       12    1    5    5    0    0  0.78094293003E+02  0.89331863975E+02 -0.96081372103E+02  0.15267786541E+03  0.00000000000E+00 0. -1.
        5    1    4    4  501    0  0.88592939691E+00 -0.33524478915E+02  0.14344476890E+02  0.36776753158E+02  0.46999998093E+01 0. -1.
        5    1    3    3  502    0  0.57510963598E+00 -0.13151547502E+02 -0.78368767016E+01  0.16024998828E+02  0.46999998093E+01 0.  1.
       -5    1    3    3    0  502 -0.11084652035E+03 -0.35195352601E+02 -0.98726413183E+03  0.99410171508E+03  0.46999998093E+01 0.  1.
</event>
<event>
10   0  0.1583500E-03  0.1835436E+03  0.7818609E-02  0.1176259E+00
        2   -1    0    0  503    0  0.00000000000E+00  0.00000000000E+00  0.59118860782E+02  0.59118860837E+02  0.00000000000E+00 0.  1.
       21   -1    0    0  501  503  0.00000000000E+00  0.00000000000E+00 -0.46767742622E+03  0.46767742622E+03  0.25500000920E-02 0.  1.
       25    2    1    2    0    0  0.60381477712E+02  0.18441204616E+02 -0.11792615387E+03  0.18305879259E+03  0.12497176840E+03 0.  0.
        6    2    1    2  501    0 -0.60381477712E+02 -0.18441204616E+02 -0.29063241156E+03  0.34373749447E+03  0.17234345237E+03 0.  0.
       24    2    4    4    0    0 -0.56571542716E+02 -0.40396915645E+02 -0.30041331726E+03  0.31895191467E+03  0.81546995341E+02 0.  0.
      -11    1    5    5    0    0 -0.18326723846E+02  0.75288540459E+01 -0.10108590029E+02  0.22242662674E+02  0.51099999109E-03 0.  1.
       12    1    5    5    0    0 -0.38244818870E+02 -0.47925769691E+02 -0.29030472723E+03  0.29670925200E+03  0.00000000000E+00 0. -1.
        5    1    4    4  501    0 -0.38099349958E+01  0.21955711029E+02  0.97809056958E+01  0.24785579797E+02  0.46999998093E+01 0. -1.
        5    1    3    3  502    0 -0.36175531738E+02  0.74841577816E+01 -0.11749955621E+02  0.39049112275E+02  0.46999998093E+01 0. -1.
       -5    1    3    3    0  502  0.96557009450E+02  0.10957046835E+02 -0.10617619825E+03  0.14400968031E+03  0.46999998093E+01 0. -1.
</event>
<event>
10   0  0.1583500E-03  0.1926266E+03  0.7818609E-02  0.1166464E+00
        2   -1    0    0  503    0  0.00000000000E+00  0.00000000000E+00  0.17107849048E+04  0.17107849048E+04  0.00000000000E+00 0. -1.
       21   -1    0    0  501  503  0.00000000000E+00  0.00000000000E+00 -0.40630176573E+02  0.40630176573E+02  0.25500000920E-02 0. -1.
       25    2    1    2    0    0  0.70374955550E+02 -0.48626306827E+02  0.14540675425E+04  0.14619350937E+04  0.12499859152E+03 0.  0.
        6    2    1    2  501    0 -0.70374955550E+02  0.48626306827E+02  0.21608718572E+03  0.28947998769E+03  0.17259153907E+03 0.  0.
       24    2    4    4    0    0 -0.69993377515E+02 -0.17089618713E+02  0.18798126561E+03  0.21785065561E+03  0.83251570348E+02 0.  0.
      -13    1    5    5    0    0 -0.20284512569E+02 -0.95050270585E+01 -0.87140615549E+00  0.22418240392E+02  0.10565999895E+00 0.  1.
       14    1    5    5    0    0 -0.49708864946E+02 -0.75845916541E+01  0.18885267177E+03  0.19543241522E+03  0.00000000000E+00 0. -1.
        5    1    4    4  501    0 -0.38157803415E+00  0.65715925540E+02  0.28105920110E+02  0.71629332084E+02  0.46999998093E+01 0. -1.
        5    1    3    3  502    0  0.18123506181E+01  0.18845185543E+02  0.39120101350E+02  0.43713818876E+02  0.46999998093E+01 0. -1.
       -5    1    3    3    0  502  0.68562604931E+02 -0.67471492370E+02  0.14149474412E+04  0.14182212748E+04  0.46999998093E+01 0. -1.
</event>
<event>
10   0  0.1583500E-03  0.1900641E+03  0.7818609E-02  0.1169876E+00
        4   -1    0    0  503    0  0.00000000000E+00  0.00000000000E+00  0.41836618537E+03  0.41836811298E+03  0.00000000000E+00 0.  1.
       21   -1    0    0  501  503  0.00000000000E+00  0.00000000000E+00 -0.10885759053E+03  0.10885759053E+03  0.12699999809E+01 0.  1.
       25    2    1    2    0    0  0.41350795816E+02  0.62622218969E+02 -0.19667054846E+02  0.14711918976E+03  0.12500332926E+03 0.  0.
        6    2    1    2  501    0 -0.41350795816E+02 -0.62622218969E+02  0.32917564968E+03  0.38010651376E+03  0.17462222893E+03 0.  0.
       24    2    4    4    0    0 -0.94969618055E+00 -0.11942969876E+02  0.47282788747E+02  0.90820651358E+02  0.76610652974E+02 0.  0.
      -13    1    5    5    0    0 -0.35682243517E+02 -0.20886760735E+02  0.21129355803E+02  0.46432102226E+02  0.10565999895E+00 0.  1.
       14    1    5    5    0    0  0.34732547336E+02  0.89437908586E+01  0.26153432944E+02  0.44388549133E+02  0.00000000000E+00 0. -1.
        5    1    4    4  501    0 -0.40401099635E+02 -0.50679249093E+02  0.28189286094E+03  0.28928586240E+03  0.46999998093E+01 0. -1.
        5    1    3    3  502    0 -0.18721151943E+02  0.62631738374E+02 -0.47305119489E+02  0.80827473732E+02  0.46999998093E+01 0.  1.
       -5    1    3    3    0  502  0.60071947759E+02 -0.95194049429E-02  0.27638064643E+02  0.66291716025E+02  0.46999998093E+01 0.  1.
</event>
<event>
10   0  0.1583500E-03  0.1859447E+03  0.7818609E-02  0.1175525E+00
       21   -1    0    0  501  503  0.00000000000E+00  0.00000000000E+00  0.35940115259E+02  0.35940115259E+02  0.00000000000E+00 0. -1.
        2   -1    0    0  503    0  0.00000000000E+00  0.00000000000E+00 -0.24093306597E+04  0.24093306597E+04  0.25500000920E-02 0. -1.
       25    2    1    2    0    0  0.31069827655E+02 -0.46423279981E+02 -0.21511446159E+04  0.21554972823E+04  0.12499968149E+03 0.  0.
        6    2    1    2  501    0 -0.31069827655E+02  0.46423279981E+02 -0.22224592853E+03  0.28977349265E+03  0.17735548816E+03 0.  0.
       24    2    4    4    0    0 -0.10529439416E+02  0.84045628474E+02 -0.80384159806E+02  0.14150279400E+03  0.79918025510E+02 0.  0.
      -11    1    5    5    0    0 -0.30505356837E+02  0.69173887504E+02 -0.87466492655E+02  0.11561137853E+03  0.51099999109E-03 0.  1.
       12    1    5    5    0    0  0.19975917421E+02  0.14871740969E+02  0.70823328489E+01  0.25891415467E+02  0.00000000000E+00 0. -1.
        5    1    4    4  501    0 -0.20540388240E+02 -0.37622348492E+02 -0.14186176873E+03  0.14827069865E+03  0.46999998093E+01 0. -1.
        5    1    3    3  502    0 -0.92683836465E+01 -0.54905664553E+02 -0.40249390178E+03  0.40635448306E+03  0.46999998093E+01 0. -1.
       -5    1    3    3    0  502  0.40338211302E+02  0.84823845718E+01 -0.17486507141E+04  0.17491427992E+04  0.46999998093E+01 0. -1.
</event>
<event>
10   0  0.1583500E-03  0.3836732E+03  0.7818609E-02  0.1051417E+00
       21   -1    0    0  501  503  0.00000000000E+00  0.00000000000E+00  0.84470428927E+03  0.84470428927E+03  0.00000000000E+00 0. -1.
       -4   -1    0    0    0  501  0.00000000000E+00  0.00000000000E+00 -0.22230595972E+03  0.22230958735E+03  0.12699999809E+01 0.  1.
       25    2    1    2    0    0 -0.13497991052E+03 -0.31424865617E+03  0.35550248093E+02  0.36587496801E+03  0.12501551075E+03 0.  0.
       -6    2    1    2    0  503  0.13497991052E+03  0.31424865617E+03  0.58684808145E+03  0.70113890861E+03  0.17387726794E+03 0.  0.
      -24    2    4    4    0    0  0.92931555977E+02  0.10171170079E+03  0.18250821634E+03  0.24238751837E+03  0.80379822454E+02 0.  0.
       15    1    5    5    0    0 -0.58395321719E+00  0.40106278088E+02  0.19538585212E+02  0.44651635853E+02  0.17769999504E+01 0. -1.
      -16    1    5    5    0    0  0.93515509194E+02  0.61605422700E+02  0.16296963112E+03  0.19773588252E+03  0.00000000000E+00 0.  1.
       -5    1    4    4    0  503  0.42048354542E+02  0.21253695538E+03  0.40433986512E+03  0.45875139024E+03  0.46999998093E+01 0.  1.
        5    1    3    3  502    0 -0.20884838934E+02 -0.20320421093E+03  0.10148797801E+02  0.20458058543E+03  0.46999998093E+01 0. -1.
       -5    1    3    3    0  502 -0.11409507159E+03 -0.11104444524E+03  0.25401450292E+02  0.16129438258E+03  0.46999998093E+01 0. -1.
</event>
<event>
10   0  0.1583500E-03  0.2603112E+03  0.7818609E-02  0.1111415E+00
       21   -1    0    0  501  503  0.00000000000E+00  0.00000000000E+00  0.15460828604E+03  0.15460828604E+03  0.00000000000E+00 0. -1.
        2   -1    0    0  503    0  0.00000000000E+00  0.00000000000E+00 -0.45694021915E+03  0.45694021916E+03  0.25500000920E-02 0.  1.
       25    2    1    2    0    0  0.19573039339E+03  0.71954455707E+01 -0.25852139939E+03  0.34757639974E+03  0.12495550558E+03 0.  0.
        6    2    1    2  501    0 -0.19573039339E+03 -0.71954455707E+01 -0.43810533717E+02  0.26397210547E+03  0.17146354793E+03 0.  0.
       24    2    4    4    0    0 -0.18361412761E+03  0.57023023122E+01 -0.86497038907E+02  0.21752446268E+03  0.78028776832E+02 0.  0.
      -15    1    5    5    0    0 -0.52613606989E+02 -0.31217122432E+02 -0.42400072318E+02  0.74455518497E+02  0.17769999504E+01 0.  1.
       16    1    5    5    0    0 -0.13100052063E+03  0.36919424744E+02 -0.44096966589E+02  0.14306894418E+03  0.00000000000E+00 0. -1.
        5    1    4    4  501    0 -0.12116265772E+02 -0.12897747883E+02  0.42686505190E+02  0.46447642785E+02  0.46999998093E+01 0. -1.
        5    1    3    3  502    0  0.20643249522E+03 -0.53657506079E+01 -0.25788167815E+03  0.33040613839E+03  0.46999998093E+01 0. -1.
       -5    1    3    3    0  502 -0.10702101833E+02  0.12561196179E+02 -0.63972124163E+00  0.17170261342E+02  0.46999998093E+01 0. -1.
</event>
<event>
10   0  0.1583500E-03  0.1948018E+03  0.7818609E-02  0.1163799E+00
       21   -1    0    0  501  503  0.00000000000E+00  0.00000000000E+00  0.33711482746E+02  0.33711482746E+02  0.00000000000E+00 0. -1.
        2   -1    0    0  503    0  0.00000000000E+00  0.00000000000E+00 -0.12309557607E+04  0.12309557607E+04  0.25500000920E-02 0.  1.
       25    2    1    2    0    0  0.12299846429E+02 -0.92068960933E+02 -0.87001576823E+03  0.88384411830E+03  0.12500003481E+03 0.  0.
        6    2    1    2  501    0 -0.12299846429E+02  0.92068960933E+02 -0.32722850970E+03  0.38082312512E+03  0.17123018214E+03 0.  0.
       24    2    4    4    0    0 -0.48034927557E+02  0.11544237811E+03 -0.27925565900E+03  0.31642749595E+03  0.80674284521E+02 0.  0.
      -15    1    5    5    0    0 -0.23943214697E+02  0.98270397712E+02 -0.26486903574E+03  0.28352973815E+03  0.17769999504E+01 0.  1.
       16    1    5    5    0    0 -0.24091712860E+02  0.17171980394E+02 -0.14386623260E+02  0.32897757796E+02  0.00000000000E+00 0. -1.
        5    1    4    4  501    0  0.35735081128E+02 -0.23373417173E+02 -0.47972850705E+02  0.64395629173E+02  0.46999998093E+01 0. -1.
        5    1    3    3  502    0  0.14192990709E+02 -0.11610169049E+03 -0.52208628501E+03  0.53504880386E+03  0.46999998093E+01 0. -1.
       -5    1    3    3    0  502 -0.18931442800E+01  0.24032729558E+02 -0.34792948322E+03  0.34879531444E+03  0.46999998093E+01 0. -1.
</event>
<event>
10   0  0.1583500E-03  0.1899958E+03  0.7818609E-02  0.1169598E+00
       21   -1    0    0  501  503  0.00000000000E+00  0.00000000000E+00  0.47365109449E+03  0.47365109449E+03  0.00000000000E+00 0. -1.
       -2   -1    0    0    0  501  0.00000000000E+00  0.00000000000E+00 -0.89050376983E+02  0.89050377019E+02  0.25500000920E-02 0. -1.
       25    2    1    2    0    0  0.33407313054E+02  0.69536821022E+02  0.15670150991E+02  0.14772175145E+03  0.12499897670E+03 0.  0.
       -6    2    1    2    0  503 -0.33407313054E+02 -0.69536821022E+02  0.36893056652E+03  0.41497972006E+03  0.17362887752E+03 0.  0.
      -24    2    4    4    0    0  0.55313435590E+01 -0.12141590521E+02  0.32968518634E+03  0.33515039383E+03  0.58783079285E+02 0.  0.
       11    1    5    5    0    0 -0.10486312170E+02  0.91394784246E+00  0.91419801051E+01  0.13941802039E+02  0.51099999109E-03 0. -1.
      -12    1    5    5    0    0  0.16017655729E+02 -0.13055538364E+02  0.32054320624E+03  0.32120859180E+03  0.00000000000E+00 0.  1.
       -5    1    4    4    0  503 -0.38938656613E+02 -0.57395230500E+02  0.39245380172E+02  0.79829326228E+02  0.46999998093E+01 0.  1.
        5    1    3    3  502    0  0.77303320767E+02  0.48809629204E+02  0.30916703136E+02  0.96623578052E+02  0.46999998093E+01 0. -1.
       -5    1    3    3    0  502 -0.43896007713E+02  0.20727191818E+02 -0.15246552145E+02  0.51098173395E+02  0.46999998093E+01 0. -1.
</event>
<event>
10   0  0.1583500E-03  0.1777108E+03  0.7818609E-02  0.1183168E+00
       21   -1    0    0  501  503  0.00000000000E+00  0.00000000000E+00  0.10324914410E+03  0.10324914410E+03  0.00000000000E+00 0.  1.
        2   -1    0    0  503    0  0.00000000000E+00  0.00000000000E+00 -0.13793503155E+04  0.13793503155E+04  0.25500000920E-02 0.  1.
       25    2    1    2    0    0  0.42059040761E+02 -0.68035749369E+01 -0.12969626288E+04  0.13036683509E+04  0.12499542762E+03 0.  0.
        6    2    1    2  501    0 -0.42059040761E+02  0.68035749369E+01  0.20861457416E+02  0.17893110875E+03  0.17252793899E+03 0.  0.
       24    2    4    4    0    0  0.95842377863E+01 -0.19188459013E+02  0.64624612682E+02  0.10626806584E+03  0.81587417410E+02 0.  0.
      -13    1    5    5    0    0  0.28048306503E+02  0.81924521733E+01  0.67063947722E+02  0.73153318574E+02  0.10565999895E+00 0.  1.
       14    1    5    5    0    0 -0.18464068717E+02 -0.27380911187E+02 -0.24393350398E+01  0.33114747265E+02  0.00000000000E+00 0. -1.
        5    1    4    4  501    0 -0.51643278547E+02  0.25992033950E+02 -0.43763155266E+02  0.72663042911E+02  0.46999998093E+01 0. -1.
        5    1    3    3  502    0  0.11592670254E+02  0.39132029664E+02 -0.15455268205E+03  0.15991975262E+03  0.46999998093E+01 0.  1.
       -5    1    3    3    0  502  0.30466370506E+02 -0.45935604601E+02 -0.11424099468E+04  0.11437485983E+04  0.46999998093E+01 0.  1.
</event>
<event>
10   0  0.1583500E-03  0.3199664E+03  0.7818609E-02  0.1078334E+00
        2   -1    0    0  503    0  0.00000000000E+00  0.00000000000E+00  0.18546979356E+04  0.18546979356E+04  0.00000000000E+00 0.  1.
       21   -1    0    0  501  503  0.00000000000E+00  0.00000000000E+00 -0.52022285865E+02  0.52022285865E+02  0.25500000920E-02 0. -1.
       25    2    1    2    0    0 -0.80169191025E+02 -0.25795361875E+03  0.97199086682E+03  0.10165428639E+04  0.12500392096E+03 0.  0.
        6    2    1    2  501    0  0.80169191025E+02  0.25795361875E+03  0.83068478292E+03  0.89017735762E+03  0.17149737849E+03 0.  0.
       24    2    4    4    0    0  0.65121400084E+02  0.12068433293E+03  0.54668876181E+03  0.57435284488E+03  0.11048566952E+03 0.  0.
      -13    1    5    5    0    0  0.57431176504E+02  0.77367371261E+01  0.12581950683E+03  0.13852348753E+03  0.10565999895E+00 0.  1.
       14    1    5    5    0    0  0.76902235791E+01  0.11294759580E+03  0.42086925498E+03  0.43582935735E+03  0.00000000000E+00 0. -1.
        5    1    4    4  501    0  0.15047790942E+02  0.13726928582E+03  0.28399602111E+03  0.31582451274E+03  0.46999998093E+01 0. -1.
        5    1    3    3  502    0 -0.86161914863E+02 -0.98426393896E+02  0.54944741257E+03  0.56482402549E+03  0.46999998093E+01 0. -1.
       -5    1    3    3    0  502  0.59927238379E+01 -0.15952722485E+03  0.42254345425E+03  0.45171883837E+03  0.46999998093E+01 0. -1.
</event>
<event>
10   0  0.1583500E-03  0.1785391E+03  0.7818609E-02  0.1181104E+00
        4   -1    0    0  503    0  0.00000000000E+00  0.00000000000E+00  0.14421059562E+03  0.14421618768E+03  0.00000000000E+00 0.  1.
       21   -1    0    0  501  503  0.00000000000E+00  0.00000000000E+00 -0.19828222191E+03  0.19828222191E+03  0.12699999809E+01 0.  1.
       25    2    1    2    0    0 -0.54501603796E+02  0.27316696284E+01  0.38046747850E+02  0.14159543064E+03  0.12499529639E+03 0.  0.
        6    2    1    2  501    0  0.54501603796E+02 -0.27316696284E+01 -0.92118374136E+02  0.20090297896E+03  0.16999507424E+03 0.  0.
       24    2    4    4    0    0  0.51966326081E+02  0.46873640003E+02 -0.10509397271E+03  0.14935134918E+03  0.79771205504E+02 0.  0.
      -13    1    5    5    0    0  0.58274384958E+02  0.15244453749E+02 -0.29305936593E+02  0.66986165706E+02  0.10565999895E+00 0.  1.
       14    1    5    5    0    0 -0.63080588774E+01  0.31629186254E+02 -0.75788036114E+02  0.82365183469E+02  0.00000000000E+00 0. -1.
        5    1    4    4  501    0  0.25352777155E+01 -0.49605309632E+02  0.12975598571E+02  0.51551629783E+02  0.46999998093E+01 0. -1.
        5    1    3    3  502    0 -0.16370635960E+02 -0.51358811739E+02 -0.15556270284E+02  0.56301090649E+02  0.46999998093E+01 0.  1.
       -5    1    3    3    0  502 -0.38130967837E+02  0.54090481367E+02  0.53603018134E+02  0.85294339988E+02  0.46999998093E+01 0.  1.
</event>
<event>
10   0  0.1583500E-03  0.1763262E+03  0.7818609E-02  0.1184927E+00
       21   -1    0    0  501  503  0.00000000000E+00  0.00000000000E+00  0.36870299351E+02  0.36870299351E+02  0.00000000000E+00 0. -1.
        2   -1    0    0  503    0  0.00000000000E+00  0.00000000000E+00 -0.70855478929E+03  0.70855478929E+03  0.25500000920E-02 0.  1.
       25    2    1    2    0    0  0.33922690783E+02  0.10958907712E+02 -0.40809371125E+03  0.42829575487E+03  0.12500371943E+03 0.  0.
        6    2    1    2  501    0 -0.33922690783E+02 -0.10958907712E+02 -0.26359077869E+03  0.31712933377E+03  0.17268488388E+03 0.  0.
       24    2    4    4    0    0  0.14264405581E+02 -0.49060213003E+02 -0.81953790086E+02  0.12532789648E+03  0.79876655916E+02 0.  0.
      -11    1    5    5    0    0 -0.25573844683E+02 -0.21628390748E+02 -0.66654828993E+02  0.74596749570E+02  0.51099999109E-03 0.  1.
       12    1    5    5    0    0  0.39838250263E+02 -0.27431822255E+02 -0.15298961094E+02  0.50731146910E+02  0.00000000000E+00 0. -1.
        5    1    4    4  501    0 -0.48187096364E+02  0.38101305290E+02 -0.18163698860E+03  0.19180143729E+03  0.46999998093E+01 0. -1.
        5    1    3    3  502    0 -0.45999102746E+02  0.15107923364E+02 -0.12712743116E+03  0.13611627585E+03  0.46999998093E+01 0.  1.
       -5    1    3    3    0  502  0.79921793529E+02 -0.41490156520E+01 -0.28096628009E+03  0.29217947902E+03  0.46999998093E+01 0.  1.
</event>
<event>
10   0  0.1583500E-03  0.1740199E+03  0.7818609E-02  0.1187500E+00
        2   -1    0    0  503    0  0.00000000000E+00  0.00000000000E+00  0.97995422416E+03  0.97995422417E+03  0.00000000000E+00 0.  1.
       21   -1    0    0  501  503  0.00000000000E+00  0.00000000000E+00 -0.23234230486E+02  0.23234230486E+02  0.25500000920E-02 0.  1.
       25    2    1    2    0    0 -0.19589829834E+02  0.17292901355E+02  0.39499475224E+03  0.41512538507E+03  0.12500170063E+03 0.  0.
        6    2    1    2  501    0  0.19589829834E+02 -0.17292901355E+02  0.56172524144E+03  0.58806306958E+03  0.17204685720E+03 0.  0.
       24    2    4    4    0    0  0.28219050743E+02 -0.75746350447E+02  0.40325223005E+03  0.41886775493E+03  0.79397800037E+02 0.  0.
      -11    1    5    5    0    0 -0.17481421833E+02 -0.12605934978E+02  0.26601149663E+02  0.34236396855E+02  0.51099999109E-03 0.  1.
       12    1    5    5    0    0  0.45700472576E+02 -0.63140415469E+02  0.37665108039E+03  0.38463135808E+03  0.00000000000E+00 0. -1.
        5    1    4    4  501    0 -0.86292209090E+01  0.58453449092E+02  0.15847301139E+03  0.16919531465E+03  0.46999998093E+01 0. -1.
        5    1    3    3  502    0  0.45513939690E+02 -0.19423131616E+02  0.20409601750E+03  0.21006201728E+03  0.46999998093E+01 0.  1.
       -5    1    3    3    0  502 -0.65103769523E+02  0.36716032972E+02  0.19089873474E+03  0.20506336779E+03  0.46999998093E+01 0.  1.
</event>
<event>
10   0  0.1583500E-03  0.2428148E+03  0.7818609E-02  0.1123289E+00
        2   -1    0    0  503    0  0.00000000000E+00  0.00000000000E+00  0.60630930555E+03  0.60630930555E+03  0.00000000000E+00 0. -1.
       21   -1    0    0  501  503  0.00000000000E+00  0.00000000000E+00 -0.11303626735E+03  0.11303626735E+03  0.25500000920E-02 0. -1.
       25    2    1    2    0    0  0.16197561110E+03  0.57028407208E+02  0.41158496253E+03  0.46315816674E+03  0.12499987288E+03 0.  0.
        6    2    1    2  501    0 -0.16197561110E+03 -0.57028407208E+02  0.81688075670E+02  0.25618740616E+03  0.17167034558E+03 0.  0.
       24    2    4    4    0    0 -0.57957717013E+02 -0.45945666458E+02  0.10176427733E+03  0.14956802095E+03  0.80898229409E+02 0.  0.
      -13    1    5    5    0    0 -0.46221593616E+02 -0.66705603422E+02  0.58074498444E+02  0.99793445566E+02  0.10565999895E+00 0.  1.
       14    1    5    5    0    0 -0.11736123396E+02  0.20759936964E+02  0.43689778888E+02  0.49774575382E+02  0.00000000000E+00 0. -1.
        5    1    4    4  501    0 -0.10401789408E+03 -0.11082740750E+02 -0.20076201662E+02  0.10661938521E+03  0.46999998093E+01 0. -1.
        5    1    3    3  502    0  0.12926240371E+03  0.27393840979E+02  0.39368703989E+03  0.41529599915E+03  0.46999998093E+01 0. -1.
       -5    1    3    3    0  502  0.32713207386E+02  0.29634566229E+02  0.17897922637E+02  0.47862167586E+02  0.46999998093E+01 0. -1.
</event>
<event>
10   0  0.1583500E-03  0.2235838E+03  0.7818609E-02  0.1137245E+00
       21   -1    0    0  501  503  0.00000000000E+00  0.00000000000E+00  0.70488593928E+02  0.70488593928E+02  0.00000000000E+00 0. -1.
        2   -1    0    0  503    0  0.00000000000E+00  0.00000000000E+00 -0.73112928288E+03  0.73112928288E+03  0.25500000920E-02 0. -1.
       25    2    1    2    0    0 -0.88291702288E+02  0.11781853140E+03 -0.46874977020E+03  0.50697942113E+03  0.12500062144E+03 0.  0.
        6    2    1    2  501    0  0.88291702288E+02 -0.11781853140E+03 -0.19189091875E+03  0.29463845567E+03  0.16826486213E+03 0.  0.
       24    2    4    4    0    0 -0.95196269260E+01 -0.79292982007E+02 -0.66702084634E+02  0.13109760981E+03  0.79745939781E+02 0.  0.
      -15    1    5    5    0    0  0.20034637280E+02 -0.50124833422E+02 -0.71159805208E+02  0.89335106327E+02  0.17769999504E+01 0.  1.
       16    1    5    5    0    0 -0.29554264205E+02 -0.29168148586E+02  0.44577205737E+01  0.41762503485E+02  0.00000000000E+00 0. -1.
        5    1    4    4  501    0  0.97811329214E+02 -0.38525549397E+02 -0.12518883412E+03  0.16354084586E+03  0.46999998093E+01 0. -1.
        5    1    3    3  502    0 -0.11718051457E+03  0.10591085376E+03 -0.34858565104E+03  0.38273022882E+03  0.46999998093E+01 0. -1.
       -5    1    3    3    0  502  0.28888812280E+02  0.11907677646E+02 -0.12016411915E+03  0.12424919232E+03  0.46999998093E+01 0. -1.
</event>
<event>
10   0  0.1583500E-03  0.1789345E+03  0.7818609E-02  0.1181574E+00
        4   -1    0    0  503    0  0.00000000000E+00  0.00000000000E+00  0.29809515297E+02  0.29836556474E+02  0.00000000000E+00 0.  1.
       21   -1    0    0  501  503  0.00000000000E+00  0.00000000000E+00 -0.89306818590E+03  0.89306818590E+03  0.12699999809E+01 0.  1.
       25    2    1    2    0    0  0.57781632548E+00 -0.48450517809E+02 -0.24510696710E+03  0.27937611483E+03  0.12500320662E+03 0.  0.
        6    2    1    2  501    0 -0.57781632548E+00  0.48450517809E+02 -0.61815170350E+03  0.64352862755E+03  0.17224917818E+03 0.  0.
       24    2    4    4    0    0  0.60430387732E+02  0.60013200044E+02 -0.40157225643E+03  0.41817458726E+03  0.79726359218E+02 0.  0.
      -15    1    5    5    0    0  0.61834533043E+02  0.28367590698E+02 -0.35738070428E+03  0.36380263221E+03  0.17769999504E+01 0.  1.
       16    1    5    5    0    0 -0.14041453110E+01  0.31645609346E+02 -0.44191552146E+02  0.54371955050E+02  0.00000000000E+00 0. -1.
        5    1    4    4  501    0 -0.61008204057E+02 -0.11562682235E+02 -0.21657944707E+03  0.22535404029E+03  0.46999998093E+01 0. -1.
        5    1    3    3  502    0 -0.39136216025E+02 -0.26107481405E+02 -0.22400485693E+03  0.22893997012E+03  0.46999998093E+01 0. -1.
       -5    1    3    3    0  502  0.39714032351E+02 -0.22343036404E+02 -0.21102110172E+02  0.50436144710E+02  0.46999998093E+01 0. -1.
</event>
<event>
10   0  0.1583500E-03  0.1745698E+03  0.7818609E-02  0.1187264E+00
        2   -1    0    0  503    0  0.00000000000E+00  0.00000000000E+00  0.12952144420E+04  0.12952144420E+04  0.00000000000E+00 0.  1.
       21   -1    0    0  501  503  0.00000000000E+00  0.00000000000E+00 -0.17652501725E+02  0.17652501725E+02  0.25500000920E-02 0.  1.
       25    2    1    2    0    0 -0.20465351309E+02  0.11424807075E+02  0.58235823494E+03  0.59608050218E+03  0.12498597703E+03 0.  0.
        6    2    1    2  501    0  0.20465351309E+02 -0.11424807075E+02  0.69520370534E+03  0.71678644156E+03  0.17298917324E+03 0.  0.
       24    2    4    4    0    0 -0.27587798802E+02 -0.13631045977E+02  0.19451495838E+03  0.21377025488E+03  0.83155040624E+02 0.  0.
      -11    1    5    5    0    0 -0.53939155127E+02 -0.24468985603E+02  0.11602963008E+03  0.13027293951E+03  0.51099999109E-03 0.  1.
       12    1    5    5    0    0  0.26351356325E+02  0.10837939626E+02  0.78485328301E+02  0.83497315370E+02  0.00000000000E+00 0. -1.
        5    1    4    4  501    0  0.48053150110E+02  0.22062389026E+01  0.50068874696E+03  0.50301618668E+03  0.46999998093E+01 0. -1.
        5    1    3    3  502    0 -0.41256832514E+02  0.44253617988E+02  0.14794242732E+03  0.15990484900E+03  0.46999998093E+01 0. -1.
       -5    1    3    3    0  502  0.20791481206E+02 -0.32828810914E+02  0.43441580762E+03  0.43617565318E+03  0.46999998093E+01 0. -1.
</event>
<event>
10   0  0.1583500E-03  0.1753468E+03  0.7818609E-02  0.1185290E+00
       21   -1    0    0  501  503  0.00000000000E+00  0.00000000000E+00  0.95984775353E+02  0.95984775353E+02  0.00000000000E+00 0.  1.
        2   -1    0    0  503    0  0.00000000000E+00  0.00000000000E+00 -0.28135129325E+03  0.28135129326E+03  0.25500000920E-02 0.  1.
       25    2    1    2    0    0  0.38518131210E+02  0.90518558848E+01 -0.14860420276E+03  0.19817700761E+03  0.12500133895E+03 0.  0.
        6    2    1    2  501    0 -0.38518131210E+02 -0.90518558848E+01 -0.36762315139E+02  0.17915906101E+03  0.17082423365E+03 0.  0.
       24    2    4    4    0    0 -0.74749097399E+02 -0.24754497756E+02  0.15919839889E+02  0.11315333907E+03  0.79687038588E+02 0.  0.
      -15    1    5    5    0    0 -0.14672699320E+02 -0.20962222117E+02  0.40658169249E+02  0.48072313413E+02  0.17769999504E+01 0.  1.
       16    1    5    5    0    0 -0.60076398079E+02 -0.37922756396E+01 -0.24738329360E+02  0.65081025654E+02  0.00000000000E+00 0. -1.
        5    1    4    4  501    0  0.36230966189E+02  0.15702641871E+02 -0.52682155028E+02  0.66005721943E+02  0.46999998093E+01 0. -1.
        5    1    3    3  502    0  0.78877148585E+02  0.20193081626E+02 -0.64025742624E+02  0.10368582753E+03  0.46999998093E+01 0. -1.
       -5    1    3    3    0  502 -0.40359017375E+02 -0.11141225741E+02 -0.84578460137E+02  0.94491180074E+02  0.46999998093E+01 0. -1.
</event>
<event>
10   0  0.1583500E-03  0.1922056E+03  0.7818609E-02  0.1166529E+00
       21   -1    0    0  501  503  0.00000000000E+00  0.00000000000E+00  0.10414443657E+03  0.10414443657E+03  0.00000000000E+00 0. -1.
        2   -1    0    0  503    0  0.00000000000E+00  0.00000000000E+00 -0.28896532173E+03  0.28896532174E+03  0.25500000920E-02 0. -1.
       25    2    1    2    0    0  0.37243660725E+02  0.78507916002E+02 -0.58373911761E+02  0.16304055265E+03  0.12499650034E+03 0.  0.
        6    2    1    2  501    0 -0.37243660725E+02 -0.78507916002E+02 -0.12644697340E+03  0.23006920565E+03  0.17144217441E+03 0.  0.
       24    2    4    4    0    0  0.14553759965E+02 -0.99258593632E+02 -0.56067400456E+02  0.14013068388E+03  0.80180888198E+02 0.  0.
      -13    1    5    5    0    0  0.77142375833E+01 -0.11252485634E+02 -0.49802160049E+02  0.51637139774E+02  0.10565999895E+00 0.  1.
       14    1    5    5    0    0  0.68395223814E+01 -0.88006107997E+02 -0.62652404065E+01  0.88493544107E+02  0.00000000000E+00 0. -1.
        5    1    4    4  501    0 -0.51797420690E+02  0.20750677630E+02 -0.70379572946E+02  0.89938521772E+02  0.46999998093E+01 0. -1.
        5    1    3    3  502    0  0.52692504417E+02  0.78284575088E+02  0.79137742462E+01  0.94813989155E+02  0.46999998093E+01 0. -1.
       -5    1    3    3    0  502 -0.15448843692E+02  0.22334091399E+00 -0.66287686007E+02  0.68226563500E+02  0.46999998093E+01 0. -1.
</event>
<event>
10   0  0.1583500E-03  0.1815838E+03  0.7818609E-02  0.1178137E+00
        2   -1    0    0  503    0  0.00000000000E+00  0.00000000000E+00  0.33751316386E+03  0.33751316387E+03  0.00000000000E+00 0. -1.
       21   -1    0    0  501  503  0.00000000000E+00  0.00000000000E+00 -0.11540477387E+03  0.11540477387E+03  0.25500000920E-02 0.  1.
       25    2    1    2    0    0 -0.39070039896E+02  0.45349682247E+02 -0.30411846206E+02  0.14188877925E+03  0.12499793434E+03 0.  0.
        6    2    1    2  501    0  0.39070039896E+02 -0.45349682247E+02  0.25252023620E+03  0.31102915849E+03  0.17143396992E+03 0.  0.
       24    2    4    4    0    0  0.58676825738E+02 -0.45730777984E+02  0.75389182711E+02  0.13275388989E+03  0.80036194795E+02 0.  0.
      -13    1    5    5    0    0  0.51209545543E+02  0.71327323148E+01  0.55313396329E+02  0.75715760595E+02  0.10565999895E+00 0.  1.
       14    1    5    5    0    0  0.74672801955E+01 -0.52863510299E+02  0.20075786383E+02  0.57038129295E+02  0.00000000000E+00 0. -1.
        5    1    4    4  501    0 -0.19606785842E+02  0.38109573721E+00  0.17713105349E+03  0.17827526860E+03  0.46999998093E+01 0. -1.
        5    1    3    3  502    0 -0.76362778244E+02  0.24826285281E+02 -0.50092383466E+02  0.94757349169E+02  0.46999998093E+01 0. -1.
       -5    1    3    3    0  502  0.37292738348E+02  0.20523396965E+02  0.19680537260E+02  0.47131430081E+02  0.46999998093E+01 0. -1.
</event>
<event>
10   0  0.1583500E-03  0.1750925E+03  0.7818609E-02  0.1186291E+00
       21   -1    0    0  501  503  0.00000000000E+00  0.00000000000E+00  0.28209255899E+03  0.28209255899E+03  0.00000000000E+00 0.  1.
        2   -1    0    0  503    0  0.00000000000E+00  0.00000000000E+00 -0.13258105464E+03  0.13258105467E+03  0.25500000920E-02 0.  1.
       25    2    1    2    0    0  0.20332552597E+02 -0.23374047547E+02 -0.59625988792E+02  0.14191757284E+03  0.12500232057E+03 0.  0.
        6    2    1    2  501    0 -0.20332552597E+02  0.23374047547E+02  0.20913749314E+03  0.27275604081E+03  0.17232993927E+03 0.  0.
       24    2    4    4    0    0 -0.28618005334E+02  0.36856137296E+01  0.28668969072E+02  0.90966983578E+02  0.81366506228E+02 0.  0.
      -15    1    5    5    0    0  0.78842154959E+01 -0.18228122457E+02  0.41884178282E+02  0.46388225030E+02  0.17769999504E+01 0.  1.
       16    1    5    5    0    0 -0.36502220830E+02  0.21913736187E+02 -0.13215209210E+02  0.44578758548E+02  0.00000000000E+00 0. -1.
        5    1    4    4  501    0  0.82854527370E+01  0.19688433817E+02  0.18046852407E+03  0.18178905723E+03  0.46999998093E+01 0. -1.
        5    1    3    3  502    0  0.50932007159E+02 -0.56288416965E+02 -0.59769662919E+02  0.96731369480E+02  0.46999998093E+01 0.  1.
       -5    1    3    3    0  502 -0.30599454562E+02  0.32914369418E+02  0.14367412772E+00  0.45186203361E+02  0.46999998093E+01 0.  1.
</event>
<event>
10   0  0.1583500E-03  0.2109951E+03  0.7818609E-02  0.1148554E+00
        2   -1    0    0  503    0  0.00000000000E+00  0.00000000000E+00  0.23455531956E+04  0.23455531956E+04  0.00000000000E+00 0.  1.
       21   -1    0    0  501  503  0.00000000000E+00  0.00000000000E+00 -0.42388743158E+02  0.42388743158E+02  0.25500000920E-02 0.  1.
       25    2    1    2    0    0 -0.11819641801E+03  0.33123366399E+02  0.20539343498E+04  0.20613924636E+04  0.12500010013E+03 0.  0.
        6    2    1    2  501    0  0.11819641801E+03 -0.33123366399E+02  0.24923010264E+03  0.32654947517E+03  0.17161400012E+03 0.  0.
       24    2    4    4    0    0  0.72011384851E+02  0.40817090847E+01  0.54457452010E+02  0.12289351439E+03  0.83276058393E+02 0.  0.
      -15    1    5    5    0    0 -0.10385655982E+02 -0.21449221283E+02  0.12488371755E+02  0.26963829508E+02  0.17769999504E+01 0.  1.
       16    1    5    5    0    0  0.82397040833E+02  0.25530930368E+02  0.41969080256E+02  0.95929684879E+02  0.00000000000E+00 0. -1.
        5    1    4    4  501    0  0.46185033158E+02 -0.37205075484E+02  0.19477265063E+03  0.20365596078E+03  0.46999998093E+01 0. -1.
        5    1    3    3  502    0  0.19029945913E+02 -0.19910141360E+02  0.30836563985E+03  0.30962882683E+03  0.46999998093E+01 0. -1.
       -5    1    3    3    0  502 -0.13722636392E+03  0.53033507759E+02  0.17455687099E+04  0.17517636367E+04  0.46999998093E+01 0. -1.
</event>
<event>
10   0  0.1583500E-03  0.2005854E+03  0.7818609E-02  0.1158177E+00
        2   -1    0    0  503    0  0.00000000000E+00  0.00000000000E+00  0.32823251265E+04  0.32823251265E+04  0.00000000000E+00 0.  1.
       21   -1    0    0  501  503  0.00000000000E+00  0.00000000000E+00 -0.14465866687E+02  0.14465866687E+02  0.25500000920E-02 0.  1.
       25    2    1    2    0    0 -0.97870879398E+02 -0.34929639880E+02  0.24230024741E+04  0.24284491922E+04  0.12500280211E+03 0.  0.
        6    2    1    2  501    0  0.97870879398E+02  0.34929639880E+02  0.84485678568E+03  0.86834180101E+03  0.17156837210E+03 0.  0.
       24    2    4    4    0    0  0.18777823872E+01 -0.27377950785E+02  0.40065039374E+03  0.40960623539E+03  0.80643981874E+02 0.  0.
      -13    1    5    5    0    0  0.31823401716E+02 -0.36417105180E+02  0.16669201286E+03  0.17356604726E+03  0.10565999895E+00 0.  1.
       14    1    5    5    0    0 -0.29945619329E+02  0.90391543954E+01  0.23395838088E+03  0.23604018813E+03  0.00000000000E+00 0. -1.
        5    1    4    4  501    0  0.95993097010E+02  0.62307590665E+02  0.44420639194E+03  0.45873556562E+03  0.46999998093E+01 0. -1.
        5    1    3    3  502    0 -0.95024405923E+02 -0.56815850726E+02  0.23340518984E+04  0.23366809866E+04  0.46999998093E+01 0. -1.
       -5    1    3    3    0  502 -0.28464734750E+01  0.21886210846E+02  0.88950575704E+02  0.91768205565E+02  0.46999998093E+01 0. -1.
</event>
<event>
10   0  0.1583500E-03  0.1900124E+03  0.7818609E-02  0.1169478E+00
       21   -1    0    0  501  503  0.00000000000E+00  0.00000000000E+00  0.17347461073E+03  0.17347461073E+03  0.00000000000E+00 0. -1.
        2   -1    0    0  503    0  0.00000000000E+00  0.00000000000E+00 -0.18775793634E+03  0.18775793636E+03  0.25500000920E-02 0.  1.
       25    2    1    2    0    0  0.20640637169E+02 -0.75056181854E+02 -0.70244565614E+02  0.16315084668E+03  0.12499773373E+03 0.  0.
        6    2    1    2  501    0 -0.20640637169E+02  0.75056181854E+02  0.55961240000E+02  0.19808170041E+03  0.17333560891E+03 0.  0.
       24    2    4    4    0    0 -0.15482663488E+02 -0.27152766507E+02  0.30911129115E+02  0.92616673640E+02  0.81519106566E+02 0.  0.
      -13    1    5    5    0    0 -0.33781845250E+02  0.11541600135E+02 -0.58731873477E+01  0.36179097499E+02  0.10565999895E+00 0.  1.
       14    1    5    5    0    0  0.18299181762E+02 -0.38694366642E+02  0.36784316463E+02  0.56437576141E+02  0.00000000000E+00 0. -1.
        5    1    4    4  501    0 -0.51579736810E+01  0.10220894836E+03  0.25050110885E+02  0.10546502677E+03  0.46999998093E+01 0. -1.
        5    1    3    3  502    0  0.49338023778E+02 -0.91465801370E+02 -0.25127672684E+02  0.10702206942E+03  0.46999998093E+01 0. -1.
       -5    1    3    3    0  502 -0.28697386609E+02  0.16409619516E+02 -0.45116892930E+02  0.56128777260E+02  0.46999998093E+01 0. -1.
</event>
<event>
10   0  0.1583500E-03  0.1795015E+03  0.7818609E-02  0.1181316E+00
       21   -1    0    0  501  503  0.00000000000E+00  0.00000000000E+00  0.88040146333E+02  0.88040146333E+02  0.00000000000E+00 0. -1.
        2   -1    0    0  503    0  0.00000000000E+00  0.00000000000E+00 -0.49428072059E+03  0.49428072059E+03  0.25500000920E-02 0. -1.
       25    2    1    2    0    0 -0.34348070635E+02  0.32204153103E+02 -0.37762620000E+03  0.40055296951E+03  0.12499694807E+03 0.  0.
        6    2    1    2  501    0  0.34348070635E+02 -0.32204153103E+02 -0.28614374258E+02  0.18176789742E+03  0.17321630606E+03 0.  0.
       24    2    4    4    0    0 -0.76698431473E+01  0.16800668277E+01  0.43847424259E+02  0.91288907140E+02  0.79683240611E+02 0.  0.
      -15    1    5    5    0    0 -0.28418492087E+02  0.31715232229E+02  0.30540261923E+02  0.52434072654E+02  0.17769999504E+01 0.  1.
       16    1    5    5    0    0  0.20748648940E+02 -0.30035165402E+02  0.13307162336E+02  0.38854834487E+02  0.00000000000E+00 0. -1.
        5    1    4    4  501    0  0.42017913783E+02 -0.33884219931E+02 -0.72461798517E+02  0.90478990276E+02  0.46999998093E+01 0. -1.
        5    1    3    3  502    0 -0.79657284361E+02  0.38036229759E+01 -0.22731875520E+03  0.24094741535E+03  0.46999998093E+01 0.  1.
       -5    1    3    3    0  502  0.45309213726E+02  0.28400530127E+02 -0.15030744480E+03  0.15960555416E+03  0.46999998093E+01 0.  1.
</event>
<event>
10   0  0.1583500E-03  0.2158941E+03  0.7818609E-02  0.1144360E+00
        2   -1    0    0  503    0  0.00000000000E+00  0.00000000000E+00  0.26128865875E+03  0.26128865876E+03  0.00000000000E+00 0.  1.
       21   -1    0    0  501  503  0.00000000000E+00  0.00000000000E+00 -0.16917972856E+03  0.16917972856E+03  0.25500000920E-02 0.  1.
       25    2    1    2    0    0 -0.50058663792E+02 -0.12056069665E+03  0.11365660923E+03  0.21350167181E+03  0.12499755056E+03 0.  0.
        6    2    1    2  501    0  0.50058663792E+02  0.12056069665E+03 -0.21547679034E+02  0.21696671552E+03  0.17195784882E+03 0.  0.
       24    2    4    4    0    0  0.48793401259E+02  0.21342027078E+02  0.37447929167E+02  0.10143093289E+03  0.77779230018E+02 0.  0.
      -15    1    5    5    0    0  0.53128038939E+02  0.15203859789E+02 -0.75566887766E+01  0.55803289760E+02  0.17769999504E+01 0.  1.
       16    1    5    5    0    0 -0.43346376805E+01  0.61381672891E+01  0.45004617943E+02  0.45627643131E+02  0.00000000000E+00 0. -1.
        5    1    4    4  501    0  0.12652625337E+01  0.99218669574E+02 -0.58995608201E+02  0.11553578262E+03  0.46999998093E+01 0. -1.
        5    1    3    3  502    0 -0.53810568578E+01 -0.11519613091E+03  0.12150264637E+03  0.16758307618E+03  0.46999998093E+01 0.  1.
       -5    1    3    3    0  502 -0.44677606934E+02 -0.53645657425E+01 -0.78460371479E+01  0.45918595624E+02  0.46999998093E+01 0.  1.
</event>
<event>
10   0  0.1583500E-03  0.1969876E+03  0.7818609E-02  0.1161999E+00
        2   -1    0    0  503    0  0.00000000000E+00  0.00000000000E+00  0.15538849267E+03  0.15538849269E+03  0.00000000000E+00 0. -1.
       21   -1    0    0  501  503  0.00000000000E+00  0.00000000000E+00 -0.52784824136E+03  0.52784824136E+03  0.25500000920E-02 0.  1.
       25    2    1    2    0    0  0.91666282201E+02  0.25084211494E+02  0.89709513604E+02  0.18083794473E+03  0.12499056150E+03 0.  0.
        6    2    1    2  501    0 -0.91666282201E+02 -0.25084211494E+02 -0.46216926230E+03  0.50239878932E+03  0.17254620117E+03 0.  0.
       24    2    4    4    0    0 -0.53125365033E+02  0.46430459722E+02 -0.32929266564E+03  0.34658469999E+03  0.81909722414E+02 0.  0.
      -13    1    5    5    0    0  0.13710255943E+02 -0.10964928858E+02 -0.87471342107E+02  0.89215736487E+02  0.10565999895E+00 0.  1.
       14    1    5    5    0    0 -0.66835620977E+02  0.57395388579E+02 -0.24182132353E+03  0.25736896350E+03  0.00000000000E+00 0. -1.
        5    1    4    4  501    0 -0.38540917167E+02 -0.71514671215E+02 -0.13287659667E+03  0.15581408933E+03  0.46999998093E+01 0. -1.
        5    1    3    3  502    0  0.10434941698E+03  0.50590084915E+02  0.38914351911E+02  0.12241149578E+03  0.46999998093E+01 0.  1.
       -5    1    3    3    0  502 -0.12683134782E+02 -0.25505873421E+02  0.50795161693E+02  0.58426448947E+02  0.46999998093E+01 0.  1.
</event>
<event>
10   0  0.1583500E-03  0.2052130E+03  0.7818609E-02  0.1154110E+00
        2   -1    0    0  503    0  0.00000000000E+00  0.00000000000E+00  0.20850652714E+04  0.20850652714E+04  0.00000000000E+00 0.  1.
       21   -1    0    0  501  503  0.00000000000E+00  0.00000000000E+00 -0.20871934939E+03  0.20871934939E+03  0.25500000920E-02 0.  1.
       25    2    1    2    0    0  0.30849067786E+02 -0.10634008112E+03  0.20303539594E+04  0.20372093853E+04  0.12500000368E+03 0.  0.
        6    2    1    2  501    0 -0.30849067786E+02  0.10634008112E+03 -0.15400803746E+03  0.25657523551E+03  0.17277875459E+03 0.  0.
       24    2    4    4    0    0 -0.42814106524E+02  0.28800637646E+02 -0.15122015334E+03  0.17792798672E+03  0.78283518281E+02 0.  0.
      -11    1    5    5    0    0 -0.18280941064E+02  0.45341809189E+02 -0.13627541858E+03  0.14477935687E+03  0.51099999109E-03 0.  1.
       12    1    5    5    0    0 -0.24533165461E+02 -0.16541171543E+02 -0.14944734760E+02  0.33148629844E+02  0.00000000000E+00 0. -1.
        5    1    4    4  501    0  0.11965038739E+02  0.77539443472E+02 -0.27878841122E+01  0.78647248788E+02  0.46999998093E+01 0. -1.
        5    1    3    3  502    0  0.28059107572E+02  0.80551844384E+01  0.10126698108E+04  0.10131013943E+04  0.46999998093E+01 0. -1.
       -5    1    3    3    0  502  0.27899602133E+01 -0.11439526556E+03  0.10176841487E+04  0.10241079910E+04  0.46999998093E+01 0. -1.
</event>
<event>
10   0  0.1583500E-03  0.2408912E+03  0.7818609E-02  0.1124732E+00
        2   -1    0    0  503    0  0.00000000000E+00  0.00000000000E+00  0.34578477249E+03  0.34578477250E+03  0.00000000000E+00 0.  1.
       21   -1    0    0  501  503  0.00000000000E+00  0.00000000000E+00 -0.16918073067E+03  0.16918073067E+03  0.25500000920E-02 0.  1.
       25    2    1    2    0    0 -0.14513168385E+03  0.85765307229E+02  0.17626966011E+03  0.27407404126E+03  0.12500677357E+03 0.  0.
        6    2    1    2  501    0  0.14513168385E+03 -0.85765307229E+02  0.33438170421E+00  0.24089146191E+03  0.17207466702E+03 0.  0.
       24    2    4    4    0    0  0.20865502340E+02 -0.13835537019E+02 -0.37561313113E+02  0.92317744877E+02  0.80529016533E+02 0.  0.
      -15    1    5    5    0    0  0.77746890228E+01 -0.47237044311E+02 -0.16231941250E+02  0.50580804563E+02  0.17769999504E+01 0.  1.
       16    1    5    5    0    0  0.13090813317E+02  0.33401507292E+02 -0.21329371863E+02  0.41736940314E+02  0.00000000000E+00 0. -1.
        5    1    4    4  501    0  0.12426618151E+03 -0.71929770210E+02  0.37895694817E+02  0.14857371703E+03  0.46999998093E+01 0. -1.
        5    1    3    3  502    0 -0.19729142860E+01  0.18407390055E+02  0.93548387001E+02  0.95478348897E+02  0.46999998093E+01 0.  1.
       -5    1    3    3    0  502 -0.14315876956E+03  0.67357917174E+02  0.82721273108E+02  0.17859569236E+03  0.46999998093E+01 0.  1.
</event>
<event>
10   0  0.1583500E-03  0.2049512E+03  0.7818609E-02  0.1153924E+00
       21   -1    0    0  501  503  0.00000000000E+00  0.00000000000E+00  0.19438221148E+03  0.19438221148E+03  0.00000000000E+00 0. -1.
        2   -1    0    0  503    0  0.00000000000E+00  0.00000000000E+00 -0.30252562131E+03  0.30252562132E+03  0.25500000920E-02 0.  1.
       25    2    1    2    0    0  0.92991798993E+02 -0.63827757308E+02 -0.20908788772E+03  0.26844603701E+03  0.12499629079E+03 0.  0.
        6    2    1    2  501    0 -0.92991798993E+02  0.63827757308E+02  0.10094447789E+03  0.22846179579E+03  0.17112436190E+03 0.  0.
       24    2    4    4    0    0 -0.11698615833E+02  0.63508081028E+01 -0.80885868143E+01  0.80737456172E+02  0.79220712042E+02 0.  0.
      -13    1    5    5    0    0 -0.20045791041E+02 -0.33691035351E+02 -0.94085487445E+00  0.39214996792E+02  0.10565999895E+00 0.  1.
       14    1    5    5    0    0  0.83471752072E+01  0.40041843453E+02 -0.71477319398E+01  0.41522459380E+02  0.00000000000E+00 0. -1.
        5    1    4    4  501    0 -0.81293183159E+02  0.57476949205E+02  0.10903306470E+03  0.14772433962E+03  0.46999998093E+01 0. -1.
        5    1    3    3  502    0  0.49886015269E+02  0.29470762171E+02 -0.40159510309E+02  0.70654204467E+02  0.46999998093E+01 0. -1.
       -5    1    3    3    0  502  0.43105783723E+02 -0.93298519479E+02 -0.16892837741E+03  0.19779183254E+03  0.46999998093E+01 0. -1.
</event>
<event>
10   0  0.1583500E-03  0.2374191E+03  0.7818609E-02  0.1127087E+00
       21   -1    0    0  501  503  0.00000000000E+00  0.00000000000E+00  0.11194598656E+03  0.11194598656E+03  0.00000000000E+00 0. -1.
        2   -1    0    0  503    0  0.00000000000E+00  0.00000000000E+00 -0.15721394562E+04  0.15721394562E+04  0.25500000920E-02 0. -1.
       25    2    1    2    0    0 -0.15402793464E+03 -0.58483182852E+02 -0.14298577770E+04  0.14447361145E+04  0.12499716301E+03 0.  0.
        6    2    1    2  501    0  0.15402793464E+03  0.58483182852E+02 -0.30335692621E+02  0.23934932825E+03  0.17094724145E+03 0.  0.
       24    2    4    4    0    0  0.28514285949E+02  0.42102032316E+02  0.30372435484E+02  0.98887287407E+02  0.79186900085E+02 0.  0.
      -11    1    5    5    0    0 -0.19577897657E+02  0.32838437455E+02 -0.48819768935E+01  0.38542064680E+02  0.51099999109E-03 0.  1.
       12    1    5    5    0    0  0.48092183607E+02  0.92635948613E+01  0.35254412377E+02  0.60345222726E+02  0.00000000000E+00 0. -1.
        5    1    4    4  501    0  0.12551364869E+03  0.16381150535E+02 -0.60708128105E+02  0.14046204084E+03  0.46999998093E+01 0. -1.
        5    1    3    3  502    0 -0.14645176841E+03 -0.91353571161E+02 -0.12085523792E+04  0.12208253514E+04  0.46999998093E+01 0. -1.
       -5    1    3    3    0  502 -0.75761662308E+01  0.32870388309E+02 -0.22130539777E+03  0.22391076304E+03  0.46999998093E+01 0. -1.
</event>
<event>
10   0  0.1583500E-03  0.2375661E+03  0.7818609E-02  0.1127163E+00
       21   -1    0    0  501  503  0.00000000000E+00  0.00000000000E+00  0.53822412880E+02  0.53822412880E+02  0.00000000000E+00 0.  1.
        2   -1    0    0  503    0  0.00000000000E+00  0.00000000000E+00 -0.18453599426E+04  0.18453599426E+04  0.25500000920E-02 0.  1.
       25    2    1    2    0    0  0.13638905593E+03 -0.90692622848E+02 -0.15379858878E+04  0.15517257248E+04  0.12500003046E+03 0.  0.
        6    2    1    2  501    0 -0.13638905593E+03  0.90692622848E+02 -0.25355164188E+03  0.34745663061E+03  0.17207715896E+03 0.  0.
       24    2    4    4    0    0 -0.61122609798E+02  0.58624299825E+02 -0.48233630859E+02  0.12638878830E+03  0.80466519147E+02 0.  0.
      -11    1    5    5    0    0  0.18487832336E+02  0.20104179337E+02 -0.43393660490E+01  0.27655163519E+02  0.51099999109E-03 0.  1.
       12    1    5    5    0    0 -0.79610442134E+02  0.38520120489E+02 -0.43894264810E+02  0.98733624781E+02  0.00000000000E+00 0. -1.
        5    1    4    4  501    0 -0.75266446137E+02  0.32068323023E+02 -0.20531801102E+03  0.22106784231E+03  0.46999998093E+01 0. -1.
        5    1    3    3  502    0  0.10763005675E+03 -0.12063133179E+03 -0.11127605830E+04  0.11244529125E+04  0.46999998093E+01 0.  1.
       -5    1    3    3    0  502  0.28758999182E+02  0.29938708945E+02 -0.42522530482E+03  0.42727281236E+03  0.46999998093E+01 0.  1.
</event>
<event>
10   0  0.1583500E-03  0.1983559E+03  0.7818609E-02  0.1160676E+00
        2   -1    0    0  503    0  0.00000000000E+00  0.00000000000E+00  0.46295496944E+03  0.46295496944E+03  0.00000000000E+00 0.  1.
       21   -1    0    0  501  503  0.00000000000E+00  0.00000000000E+00 -0.94337246730E+02  0.94337246730E+02  0.25500000920E-02 0.  1.
       25    2    1    2    0    0 -0.87024925326E+02  0.44197955193E+02  0.31364541175E+03  0.35145967853E+03  0.12499465769E+03 0.  0.
        6    2    1    2  501    0  0.87024925326E+02 -0.44197955193E+02  0.54972310960E+02  0.20583253764E+03  0.17267970845E+03 0.  0.
       24    2    4    4    0    0  0.83028507095E+02 -0.93186682445E+02  0.32385996386E+02  0.15153614402E+03  0.79604393138E+02 0.  0.
      -15    1    5    5    0    0  0.33025962115E+02  0.16908560297E+01 -0.12333131599E+02  0.35338888375E+02  0.17769999504E+01 0.  1.
       16    1    5    5    0    0  0.50002544980E+02 -0.94877538474E+02  0.44719127985E+02  0.11619725564E+03  0.00000000000E+00 0. -1.
        5    1    4    4  501    0  0.39964182313E+01  0.48988727252E+02  0.22586314574E+02  0.54296393625E+02  0.46999998093E+01 0. -1.
        5    1    3    3  502    0  0.22802894909E+02  0.24595668230E+02  0.25376816682E+02  0.42320110291E+02  0.46999998093E+01 0.  1.
       -5    1    3    3    0  502 -0.10982782023E+03  0.19602286963E+02  0.28826859506E+03  0.30913956824E+03  0.46999998093E+01 0.  1.
</event>
<event>
10   0  0.1583500E-03  0.2331839E+03  0.7818609E-02  0.1130146E+00
        2   -1    0    0  503    0  0.00000000000E+00  0.00000000000E+00  0.40789645062E+03  0.40789645063E+03  0.00000000000E+00 0. -1.
       21   -1    0    0  501  503  0.00000000000E+00  0.00000000000E+00 -0.12275321392E+03  0.12275321392E+03  0.25500000920E-02 0. -1.
       25    2    1    2    0    0  0.12492078051E+03 -0.98763708571E+02  0.72409597926E+02  0.21500693572E+03  0.12500144400E+03 0.  0.
        6    2    1    2  501    0 -0.12492078051E+03  0.98763708571E+02  0.21273363878E+03  0.31564272883E+03  0.17033866167E+03 0.  0.
       24    2    4    4    0    0 -0.13501937632E+03  0.11806395253E+03  0.19038831454E+03  0.28408509001E+03  0.11084809058E+03 0.  0.
      -13    1    5    5    0    0 -0.30985177351E+02  0.59065425047E+02  0.13848228292E+03  0.15370803329E+03  0.10565999895E+00 0.  1.
       14    1    5    5    0    0 -0.10403419897E+03  0.58998527485E+02  0.51906031616E+02  0.13037705672E+03  0.00000000000E+00 0. -1.
        5    1    4    4  501    0  0.10098595808E+02 -0.19300243961E+02  0.22345324235E+02  0.31557638816E+02  0.46999998093E+01 0. -1.
        5    1    3    3  502    0  0.32317620146E+02  0.28875376040E+02  0.66904111058E+01  0.44102919544E+02  0.46999998093E+01 0. -1.
       -5    1    3    3    0  502  0.92603160363E+02 -0.12763908461E+03  0.65719186820E+02  0.17090401617E+03  0.46999998093E+01 0. -1.
</event>
<event>
10   0  0.1583500E-03  0.2151416E+03  0.7818609E-02  0.1144364E+00
       21   -1    0    0  501  503  0.00000000000E+00  0.00000000000E+00  0.49894941883E+02  0.49894941883E+02  0.00000000000E+00 0.  1.
        2   -1    0    0  503    0  0.00000000000E+00  0.00000000000E+00 -0.79976374515E+03  0.79976374515E+03  0.25500000920E-02 0.  1.
       25    2    1    2    0    0  0.53530037098E+02  0.12189643070E+03 -0.38423806168E+03  0.42542790172E+03  0.12500322730E+03 0.  0.
        6    2    1    2  501    0 -0.53530037098E+02 -0.12189643070E+03 -0.36563074159E+03  0.42423078531E+03  0.16900211633E+03 0.  0.
       24    2    4    4    0    0 -0.59057673577E+02 -0.11301234580E+03 -0.37776889069E+03  0.40753029456E+03  0.84332716644E+02 0.  0.
      -15    1    5    5    0    0 -0.38614605740E+02 -0.63462936162E+02 -0.99718794651E+02  0.12436087720E+03  0.17769999504E+01 0.  1.
       16    1    5    5    0    0 -0.20443067838E+02 -0.49549409638E+02 -0.27805009604E+03  0.28316941736E+03  0.00000000000E+00 0. -1.
        5    1    4    4  501    0  0.55276364793E+01 -0.88840848955E+01  0.12138149105E+02  0.16700490753E+02  0.46999998093E+01 0. -1.
        5    1    3    3  502    0 -0.96263316787E+01 -0.21188931067E+02 -0.77940770157E+02  0.81476933620E+02  0.46999998093E+01 0.  1.
       -5    1    3    3    0  502  0.63156368777E+02  0.14308536176E+03 -0.30629729152E+03  0.34395096810E+03  0.46999998093E+01 0.  1.
</event>
<event>
10   0  0.1583500E-03  0.1970991E+03  0.7818609E-02  0.1161659E+00
        2   -1    0    0  503    0  0.00000000000E+00  0.00000000000E+00  0.25200116860E+04  0.25200116860E+04  0.00000000000E+00 0. -1.
       21   -1    0    0  501  503  0.00000000000E+00  0.00000000000E+00 -0.12920515421E+02  0.12920515421E+02  0.25500000920E-02 0.  1.
       25    2    1    2    0    0  0.70174984469E+02  0.66428971968E+02  0.13446384306E+04  0.13538883416E+04  0.12499518287E+03 0.  0.
        6    2    1    2  501    0 -0.70174984469E+02 -0.66428971968E+02  0.11624527400E+04  0.11790438598E+04  0.17178682694E+03 0.  0.
       24    2    4    4    0    0 -0.57646665163E+02 -0.78505824887E+02  0.47678890293E+03  0.49314314061E+03  0.79851090354E+02 0.  0.
      -15    1    5    5    0    0 -0.61898319980E+02 -0.91911070023E+02  0.44042397331E+03  0.45415358724E+03  0.17769999504E+01 0.  1.
       16    1    5    5    0    0  0.42516548163E+01  0.13405245136E+02  0.36364929616E+02  0.38989553368E+02  0.00000000000E+00 0. -1.
        5    1    4    4  501    0 -0.12528319305E+02  0.12076852919E+02  0.68566383707E+03  0.68590071922E+03  0.46999998093E+01 0. -1.
        5    1    3    3  502    0  0.10227415357E+03  0.71842193890E+02  0.10542913138E+04  0.10616843070E+04  0.46999998093E+01 0.  1.
       -5    1    3    3    0  502 -0.32099169103E+02 -0.54132219217E+01  0.29034711676E+03  0.29220403460E+03  0.46999998093E+01 0.  1.
</event>
<event>
10   0  0.1583500E-03  0.1726885E+03  0.7818609E-02  0.1189384E+00
       21   -1    0    0  501  503  0.00000000000E+00  0.00000000000E+00  0.51181969443E+02  0.51181969443E+02  0.00000000000E+00 0. -1.
        2   -1    0    0  503    0  0.00000000000E+00  0.00000000000E+00 -0.44973096419E+03  0.44973096419E+03  0.25500000920E-02 0. -1.
       25    2    1    2    0    0 -0.90957257245E+01  0.98658385872E+00 -0.21523027525E+03  0.24906563766E+03  0.12500365956E+03 0.  0.
        6    2    1    2  501    0  0.90957257245E+01 -0.98658385872E+00 -0.18331871949E+03  0.25184729598E+03  0.17244593936E+03 0.  0.
       24    2    4    4    0    0  0.11231803324E+02  0.76173275505E+02 -0.10753222661E+03  0.14357038604E+03  0.55863715245E+02 0.  0.
      -13    1    5    5    0    0 -0.12997776899E+02  0.44454810210E+02 -0.87290434779E+02  0.98817020412E+02  0.10565999895E+00 0.  1.
       14    1    5    5    0    0  0.24229580223E+02  0.31718465295E+02 -0.20241791828E+02  0.44753365627E+02  0.00000000000E+00 0. -1.
        5    1    4    4  501    0 -0.21360775996E+01 -0.77159859364E+02 -0.75786492885E+02  0.10827690994E+03  0.46999998093E+01 0. -1.
        5    1    3    3  502    0 -0.11034559566E+02 -0.14778445305E+02 -0.22759853909E+03  0.22839297044E+03  0.46999998093E+01 0.  1.
       -5    1    3    3    0  502  0.19388338414E+01  0.15765029164E+02  0.12368263842E+02  0.20672667217E+02  0.46999998093E+01 0.  1.
</event>
<event>
10   0  0.1583500E-03  0.1822398E+03  0.7818609E-02  0.1176140E+00
        4   -1    0    0  503    0  0.00000000000E+00  0.00000000000E+00  0.17317910749E+03  0.17318376417E+03  0.00000000000E+00 0.  1.
       21   -1    0    0  501  503  0.00000000000E+00  0.00000000000E+00 -0.15530462589E+03  0.15530462589E+03  0.12699999809E+01 0.  1.
       25    2    1    2    0    0  0.52909629456E+02  0.46349662579E+02  0.27321225442E+02  0.14600386101E+03  0.12499183157E+03 0.  0.
        6    2    1    2  501    0 -0.52909629456E+02 -0.46349662579E+02 -0.94467438365E+01  0.18248452905E+03  0.16811794152E+03 0.  0.
       24    2    4    4    0    0 -0.29989475341E+02 -0.65785055596E+02  0.48508974373E+02  0.11703207884E+03  0.78207063060E+02 0.  0.
      -15    1    5    5    0    0 -0.22398086816E+02 -0.17351633280E+02 -0.18588377466E+02  0.33932859828E+02  0.17769999504E+01 0.  1.
       16    1    5    5    0    0 -0.75913885247E+01 -0.48433422316E+02  0.67097351839E+02  0.83099219014E+02  0.00000000000E+00 0. -1.
        5    1    4    4  501    0 -0.22920154116E+02  0.19435393017E+02 -0.57955718209E+02  0.65452450205E+02  0.46999998093E+01 0. -1.
        5    1    3    3  502    0  0.82357254586E+02  0.14850274673E+02  0.49441919857E+02  0.97313110515E+02  0.46999998093E+01 0.  1.
       -5    1    3    3    0  502 -0.29447625130E+02  0.31499387907E+02 -0.22120694414E+02  0.48690750496E+02  0.46999998093E+01 0.  1.
</event>
<event>
10   0  0.1583500E-03  0.1839889E+03  0.7818609E-02  0.1175596E+00
        2   -1    0    0  503    0  0.00000000000E+00  0.00000000000E+00  0.11557077339E+03  0.11557077342E+03  0.00000000000E+00 0.  1.
       21   -1    0    0  501  503  0.00000000000E+00  0.00000000000E+00 -0.36685200182E+03  0.36685200182E+03  0.25500000920E-02 0.  1.
       25    2    1    2    0    0 -0.82000567021E+01 -0.64927900784E+02  0.31955066518E+02  0.14467328574E+03  0.12500544029E+03 0.  0.
        6    2    1    2  501    0  0.82000567021E+01  0.64927900784E+02 -0.28323629494E+03  0.33774948949E+03  0.17195652255E+03 0.  0.
       24    2    4    4    0    0 -0.26989956258E+01 -0.20784943302E+02 -0.20572386785E+03  0.22157829111E+03  0.79594791532E+02 0.  0.
      -11    1    5    5    0    0  0.12342266975E+02  0.24589385856E+02 -0.36351636135E+02  0.45589592023E+02  0.51099999109E-03 0.  1.
       12    1    5    5    0    0 -0.15041262601E+02 -0.45374329158E+02 -0.16937223172E+03  0.17598869908E+03  0.00000000000E+00 0. -1.
        5    1    4    4  501    0  0.10899052328E+02  0.85712844086E+02 -0.77512427088E+02  0.11617119839E+03  0.46999998093E+01 0. -1.
        5    1    3    3  502    0  0.29788003725E+02 -0.51871024542E+02 -0.32759257640E+02  0.68360714685E+02  0.46999998093E+01 0.  1.
       -5    1    3    3    0  502 -0.37988060427E+02 -0.13056876243E+02  0.64714324158E+02  0.76312571059E+02  0.46999998093E+01 0.  1.
</event>
<event>
10   0  0.1583500E-03  0.1819124E+03  0.7818609E-02  0.1177952E+00
        2   -1    0    0  503    0  0.00000000000E+00  0.00000000000E+00  0.19251181314E+04  0.19251181314E+04  0.00000000000E+00 0.  1.
       21   -1    0    0  501  503  0.00000000000E+00  0.00000000000E+00 -0.25676808922E+02  0.25676808922E+02  0.25500000920E-02 0.  1.
       25    2    1    2    0    0  0.58765798823E+02  0.88153800958E+01  0.15560592636E+04  0.15622034355E+04  0.12501204724E+03 0.  0.
        6    2    1    2  501    0 -0.58765798823E+02 -0.88153800958E+01  0.34338205889E+03  0.38859150485E+03  0.17193309524E+03 0.  0.
       24    2    4    4    0    0  0.85626708777E+01  0.38252907242E+02  0.24418606276E+03  0.25970984537E+03  0.79282824686E+02 0.  0.
      -11    1    5    5    0    0 -0.97137932764E+01  0.43065545010E+02  0.59657760027E+02  0.74216219781E+02  0.51099999109E-03 0.  1.
       12    1    5    5    0    0  0.18276464154E+02 -0.48126377685E+01  0.18452830273E+03  0.18549362559E+03  0.00000000000E+00 0. -1.
        5    1    4    4  501    0 -0.67328469701E+02 -0.47068287337E+02  0.99195996125E+02  0.12888165948E+03  0.46999998093E+01 0. -1.
        5    1    3    3  502    0 -0.21992037931E+02  0.26913264469E+02  0.16548901970E+03  0.16916465109E+03  0.46999998093E+01 0.  1.
       -5    1    3    3    0  502  0.80757836754E+02 -0.18097884373E+02  0.13905702439E+04  0.13930387844E+04  0.46999998093E+01 0.  1.
</event>
<event>
10   0  0.1583500E-03  0.3093836E+03  0.7818609E-02  0.1083575E+00
       21   -1    0    0  501  503  0.00000000000E+00  0.00000000000E+00  0.88217739225E+03  0.88217739225E+03  0.00000000000E+00 0. -1.
       -2   -1    0    0    0  501  0.00000000000E+00  0.00000000000E+00 -0.29572030698E+03  0.29572030699E+03  0.25500000920E-02 0.  1.
       25    2    1    2    0    0 -0.14000046527E+03  0.21576431312E+03 -0.18914762207E+03  0.34286422453E+03  0.12499873774E+03 0.  0.
       -6    2    1    2    0  503  0.14000046527E+03 -0.21576431312E+03  0.77560470734E+03  0.83503347471E+03  0.17194148060E+03 0.  0.
      -24    2    4    4    0    0  0.13878298701E+03 -0.15463328635E+03  0.43167789835E+03  0.48568232669E+03  0.79808168751E+02 0.  0.
       11    1    5    5    0    0  0.65918542807E+01 -0.54878501973E+02  0.13567859139E+03  0.14650523091E+03  0.51099999109E-03 0. -1.
      -12    1    5    5    0    0  0.13219113273E+03 -0.99754784382E+02  0.29599930696E+03  0.33917709578E+03  0.00000000000E+00 0.  1.
       -5    1    4    4    0  503  0.12174782604E+01 -0.61131026763E+02  0.34392680898E+03  0.34935114802E+03  0.46999998093E+01 0.  1.
        5    1    3    3  502    0 -0.12409778961E+03  0.22598326167E+03 -0.14793483711E+03  0.29728017420E+03  0.46999998093E+01 0. -1.
       -5    1    3    3    0  502 -0.15902675666E+02 -0.10218948552E+02 -0.41212784957E+02  0.45584050336E+02  0.46999998093E+01 0. -1.
</event>
<event>
10   0  0.1583500E-03  0.1878006E+03  0.7818609E-02  0.1171755E+00
        2   -1    0    0  503    0  0.00000000000E+00  0.00000000000E+00  0.15228055977E+03  0.15228055979E+03  0.00000000000E+00 0.  1.
       21   -1    0    0  501  503  0.00000000000E+00  0.00000000000E+00 -0.18469494281E+03  0.18469494281E+03  0.25500000920E-02 0.  1.
       25    2    1    2    0    0  0.12422422891E+02 -0.71999927081E+02 -0.35797904270E+02  0.14914441648E+03  0.12499704368E+03 0.  0.
        6    2    1    2  501    0 -0.12422422891E+02  0.71999927081E+02  0.33835212269E+01  0.18783108612E+03  0.17300509416E+03 0.  0.
       24    2    4    4    0    0  0.25580037663E+02 -0.16830335779E+02 -0.29972584527E+02  0.85509424689E+02  0.73999374039E+02 0.  0.
      -13    1    5    5    0    0  0.49884099117E+02 -0.61242330667E+00 -0.12370937124E+02  0.51398926607E+02  0.10565999895E+00 0.  1.
       14    1    5    5    0    0 -0.24304061454E+02 -0.16217912472E+02 -0.17601647403E+02  0.34110498082E+02  0.00000000000E+00 0. -1.
        5    1    4    4  501    0 -0.38002460554E+02  0.88830262859E+02  0.33356105754E+02  0.10232166143E+03  0.46999998093E+01 0. -1.
        5    1    3    3  502    0 -0.12022532799E+01 -0.87995335109E+02 -0.67369827423E+02  0.11092974380E+03  0.46999998093E+01 0. -1.
       -5    1    3    3    0  502  0.13624676171E+02  0.15995408028E+02  0.31571923153E+02  0.38214672687E+02  0.46999998093E+01 0. -1.
</event>
<event>
10   0  0.1583500E-03  0.1778930E+03  0.7818609E-02  0.1182529E+00
       21   -1    0    0  501  503  0.00000000000E+00  0.00000000000E+00  0.61933827487E+02  0.61933827487E+02  0.00000000000E+00 0. -1.
        2   -1    0    0  503    0  0.00000000000E+00  0.00000000000E+00 -0.10744964685E+04  0.10744964685E+04  0.25500000920E-02 0. -1.
       25    2    1    2    0    0 -0.38475085003E+02 -0.26983115994E+02 -0.93135040148E+03  0.94087631457E+03  0.12500499303E+03 0.  0.
        6    2    1    2  501    0  0.38475085003E+02  0.26983115994E+02 -0.81212239489E+02  0.19555398137E+03  0.17157363163E+03 0.  0.
       24    2    4    4    0    0  0.57867558319E+02  0.52933452023E+01  0.95561468307E+01  0.10012073700E+03  0.80970168735E+02 0.  0.
      -13    1    5    5    0    0  0.32961144446E+02  0.31954296261E+02 -0.22887958035E+02  0.51297016285E+02  0.10565999895E+00 0.  1.
       14    1    5    5    0    0  0.24906413874E+02 -0.26660951059E+02  0.32444104866E+02  0.48823720710E+02  0.00000000000E+00 0. -1.
        5    1    4    4  501    0 -0.19392473316E+02  0.21689770791E+02 -0.90768386320E+02  0.95433244373E+02  0.46999998093E+01 0. -1.
        5    1    3    3  502    0 -0.53382260494E+02  0.21932062542E+02 -0.75457353070E+03  0.75679190293E+03  0.46999998093E+01 0. -1.
       -5    1    3    3    0  502  0.14907175491E+02 -0.48915178535E+02 -0.17677687077E+03  0.18408441165E+03  0.46999998093E+01 0. -1.
</event>
<event>
10   0  0.1583500E-03  0.4013605E+03  0.7818609E-02  0.1045571E+00
        2   -1    0    0  503    0  0.00000000000E+00  0.00000000000E+00  0.19715559319E+04  0.19715559320E+04  0.00000000000E+00 0. -1.
       21   -1    0    0  501  503  0.00000000000E+00  0.00000000000E+00 -0.15429419467E+03  0.15429419467E+03  0.25500000920E-02 0.  1.
       25    2    1    2    0    0  0.19578147850E+03 -0.29569826540E+03  0.16478389417E+04  0.16901962269E+04  0.12498902377E+03 0.  0.
        6    2    1    2  501    0 -0.19578147850E+03  0.29569826540E+03  0.16942279554E+03  0.43565389971E+03  0.18794250505E+03 0.  0.
       24    2    4    4    0    0 -0.85028869192E+02  0.26013594127E+03  0.12560530246E+03  0.31126385967E+03  0.78790112258E+02 0.  0.
      -11    1    5    5    0    0 -0.19628984928E+02  0.48701908014E+02 -0.74414640383E+01  0.53033463783E+02  0.51099999109E-03 0.  1.
       12    1    5    5    0    0 -0.65399884264E+02  0.21143403326E+03  0.13304676650E+03  0.25823039588E+03  0.00000000000E+00 0. -1.
        5    1    4    4  501    0 -0.11075260931E+03  0.35562324127E+02  0.43817493081E+02  0.12439004005E+03  0.46999998093E+01 0. -1.
        5    1    3    3  502    0  0.39054015164E+02 -0.14497552569E+03  0.50593807842E+03  0.52776751353E+03  0.46999998093E+01 0. -1.
       -5    1    3    3    0  502  0.15672746333E+03 -0.15072273971E+03  0.11419008633E+04  0.11624287134E+04  0.46999998093E+01 0. -1.
</event>
<event>
10   0  0.1583500E-03  0.2217381E+03  0.7818609E-02  0.1139632E+00
       21   -1    0    0  501  503  0.00000000000E+00  0.00000000000E+00  0.12626171225E+03  0.12626171225E+03  0.00000000000E+00 0. -1.
        2   -1    0    0  503    0  0.00000000000E+00  0.00000000000E+00 -0.49598546658E+03  0.49598546659E+03  0.25500000920E-02 0.  1.
       25    2    1    2    0    0  0.12625719739E+03 -0.57991321000E+02 -0.35356535503E+03  0.39992114692E+03  0.12499836108E+03 0.  0.
        6    2    1    2  501    0 -0.12625719739E+03  0.57991321000E+02 -0.16158399303E+02  0.22232603191E+03  0.17281173975E+03 0.  0.
       24    2    4    4    0    0 -0.71480975952E+02  0.73352298787E+02 -0.65843833825E+02  0.14664825132E+03  0.81732548610E+02 0.  0.
      -11    1    5    5    0    0  0.51555498953E+01  0.49295492001E+02 -0.15849494836E+02  0.52036830352E+02  0.51099999109E-03 0.  1.
       12    1    5    5    0    0 -0.76636525848E+02  0.24056806786E+02 -0.49994338989E+02  0.94611420969E+02  0.00000000000E+00 0. -1.
        5    1    4    4  501    0 -0.54776221434E+02 -0.15360977787E+02  0.49685434522E+02  0.75677780590E+02  0.46999998093E+01 0. -1.
        5    1    3    3  502    0  0.98586471356E+01  0.19631036225E+02 -0.15702917962E+03  0.15862794128E+03  0.46999998093E+01 0. -1.
       -5    1    3    3    0  502  0.11639855025E+03 -0.77622357225E+02 -0.19653617541E+03  0.24129320564E+03  0.46999998093E+01 0. -1.
</event>
<event>
10   0  0.1583500E-03  0.2186045E+03  0.7818609E-02  0.1147444E+00
        2   -1    0    0  503    0  0.00000000000E+00  0.00000000000E+00  0.61702915082E+02  0.61702915135E+02  0.00000000000E+00 0.  1.
       21   -1    0    0  501  503  0.00000000000E+00  0.00000000000E+00 -0.74545554450E+03  0.74545554450E+03  0.25500000920E-02 0. -1.
       25    2    1    2    0    0  0.10162815863E+03 -0.14336320031E+02 -0.11674999881E+03  0.19947439344E+03  0.12500263484E+03 0.  0.
        6    2    1    2  501    0 -0.10162815863E+03  0.14336320031E+02 -0.56700263061E+03  0.60768406620E+03  0.19301328581E+03 0.  0.
       24    2    4    4    0    0 -0.11436738491E+03 -0.33327790375E+01 -0.56841444736E+03  0.58535542601E+03  0.80342919085E+02 0.  0.
      -13    1    5    5    0    0  0.66552635625E+01  0.13841492734E+02 -0.36943168122E+02  0.40008602689E+02  0.10565999895E+00 0.  1.
       14    1    5    5    0    0 -0.12102264847E+03 -0.17174271771E+02 -0.53147127924E+03  0.54534682332E+03  0.00000000000E+00 0. -1.
        5    1    4    4  501    0  0.12739226273E+02  0.17669099069E+02  0.14118167515E+01  0.22328640189E+02  0.46999998093E+01 0. -1.
        5    1    3    3  502    0 -0.14153590201E+02 -0.39330725421E+02 -0.20579213588E+02  0.46827599851E+02  0.46999998093E+01 0.  1.
       -5    1    3    3    0  502  0.11578174883E+03  0.24994405389E+02 -0.96170785227E+02  0.15264679359E+03  0.46999998093E+01 0.  1.
</event>
<event>
10   0  0.1583500E-03  0.2131724E+03  0.7818609E-02  0.1146702E+00
       -2   -1    0    0    0  501  0.00000000000E+00  0.00000000000E+00  0.44835689957E+03  0.44835689958E+03  0.00000000000E+00 0. -1.
       21   -1    0    0  501  503  0.00000000000E+00  0.00000000000E+00 -0.97475052421E+02  0.97475052421E+02  0.25500000920E-02 0.  1.
       25    2    1    2    0    0 -0.20588570918E+02 -0.12437310996E+03  0.25829071847E+03  0.31341939969E+03  0.12500026050E+03 0.  0.
       -6    2    1    2    0  503  0.20588570918E+02  0.12437310996E+03  0.92591128679E+02  0.23241255230E+03  0.17190089478E+03 0.  0.
      -24    2    4    4    0    0 -0.11970877279E+02  0.84694739810E+02  0.12665459615E+03  0.17063148288E+03  0.75876316277E+02 0.  0.
       11    1    5    5    0    0 -0.17916976609E+02  0.61520195416E+01  0.72772518050E+02  0.75197771102E+02  0.51099999109E-03 0. -1.
      -12    1    5    5    0    0  0.59460993295E+01  0.78542720268E+02  0.53882078098E+02  0.95433711782E+02  0.00000000000E+00 0.  1.
       -5    1    4    4    0  503  0.32559448197E+02  0.39678370146E+02 -0.34063467469E+02  0.61781069419E+02  0.46999998093E+01 0.  1.
        5    1    3    3  502    0 -0.66288989079E+02 -0.92229547434E+02  0.12580197169E+03  0.16955455043E+03  0.46999998093E+01 0. -1.
       -5    1    3    3    0  502  0.45700418161E+02 -0.32143562522E+02  0.13248874678E+03  0.14386484926E+03  0.46999998093E+01 0. -1.
</event>
<event>
10   0  0.1583500E-03  0.2037947E+03  0.7818609E-02  0.1155175E+00
       21   -1    0    0  501  503  0.00000000000E+00  0.00000000000E+00  0.35700180381E+02  0.35700180381E+02  0.00000000000E+00 0. -1.
        2   -1    0    0  503    0  0.00000000000E+00  0.00000000000E+00 -0.10093877590E+04  0.10093877590E+04  0.25500000920E-02 0. -1.
       25    2    1    2    0    0 -0.98098673840E+02  0.48987426056E+02 -0.55604955317E+03  0.58037965115E+03  0.12500526455E+03 0.  0.
        6    2    1    2  501    0  0.98098673840E+02 -0.48987426056E+02 -0.41763802543E+03  0.46470828821E+03  0.17178228993E+03 0.  0.
       24    2    4    4    0    0  0.43945657057E+01 -0.68833445468E+02 -0.21827141343E+03  0.24347659893E+03  0.82952328970E+02 0.  0.
      -15    1    5    5    0    0 -0.11871389643E+02  0.16093046256E+02 -0.27754288575E+02  0.34254551420E+02  0.17769999504E+01 0.  1.
       16    1    5    5    0    0  0.16265955349E+02 -0.84926491724E+02 -0.19051712485E+03  0.20922204751E+03  0.00000000000E+00 0. -1.
        5    1    4    4  501    0  0.93704108135E+02  0.19846019412E+02 -0.19936661200E+03  0.22123168929E+03  0.46999998093E+01 0. -1.
        5    1    3    3  502    0  0.26078404763E+02 -0.49353952735E+01 -0.14795677969E+03  0.15039195450E+03  0.46999998093E+01 0. -1.
       -5    1    3    3    0  502 -0.12417707860E+03  0.53922821329E+02 -0.40809277348E+03  0.42998769666E+03  0.46999998093E+01 0. -1.
</event>
<event>
10   0  0.1583500E-03  0.2558114E+03  0.7818609E-02  0.1114284E+00
        2   -1    0    0  503    0  0.00000000000E+00  0.00000000000E+00  0.10438076053E+04  0.10438076053E+04  0.00000000000E+00 0. -1.
       21   -1    0    0  501  503  0.00000000000E+00  0.00000000000E+00 -0.56652986566E+02  0.56652986566E+02  0.25500000920E-02 0.  1.
       25    2    1    2    0    0 -0.92343554920E+01 -0.19002215300E+03  0.52510385028E+03  0.57232200377E+03  0.12499892186E+03 0.  0.
        6    2    1    2  501    0  0.92343554920E+01  0.19002215300E+03  0.46205076848E+03  0.52813858812E+03  0.17101392827E+03 0.  0.
       24    2    4    4    0    0  0.49478417188E+02  0.19159497454E+03  0.36160758372E+03  0.41981969951E+03  0.79572529499E+02 0.  0.
      -15    1    5    5    0    0  0.12262878328E+02  0.77501428304E+02  0.72719233300E+02  0.10699576718E+03  0.17769999504E+01 0.  1.
       16    1    5    5    0    0  0.37215538860E+02  0.11409354624E+03  0.28888835042E+03  0.31282393233E+03  0.00000000000E+00 0. -1.
        5    1    4    4  501    0 -0.40244061696E+02 -0.15728215437E+01  0.10044318475E+03  0.10831888862E+03  0.46999998093E+01 0. -1.
        5    1    3    3  502    0  0.38608370985E+02 -0.29101803333E+02  0.20679446605E+03  0.21242307421E+03  0.46999998093E+01 0. -1.
       -5    1    3    3    0  502 -0.47842726477E+02 -0.16092034967E+03  0.31830938423E+03  0.35989892956E+03  0.46999998093E+01 0. -1.
</event>
<event>
10   0  0.1583500E-03  0.3588954E+03  0.7818609E-02  0.1061029E+00
        2   -1    0    0  503    0  0.00000000000E+00  0.00000000000E+00  0.32715430587E+03  0.32715430588E+03  0.00000000000E+00 0. -1.
       21   -1    0    0  501  503  0.00000000000E+00  0.00000000000E+00 -0.38064601604E+03  0.38064601604E+03  0.25500000920E-02 0. -1.
       25    2    1    2    0    0 -0.14203294885E+03 -0.28164190749E+03  0.25721339105E+02  0.34026719640E+03  0.12499862020E+03 0.  0.
        6    2    1    2  501    0  0.14203294885E+03  0.28164190749E+03 -0.79213049276E+02  0.36753312552E+03  0.17120271192E+03 0.  0.
       24    2    4    4    0    0  0.82850296125E+01  0.69410747364E+02 -0.43100099504E+02  0.11404386270E+03  0.79132107747E+02 0.  0.
      -13    1    5    5    0    0 -0.21142953640E+02  0.71130650352E+02 -0.20756807827E+02  0.77054851524E+02  0.10565999895E+00 0.  1.
       14    1    5    5    0    0  0.29427983253E+02 -0.17199029887E+01 -0.22343291677E+02  0.36989011173E+02  0.00000000000E+00 0. -1.
        5    1    4    4  501    0  0.13374791923E+03  0.21223116012E+03 -0.36112949772E+02  0.25348926282E+03  0.46999998093E+01 0. -1.
        5    1    3    3  502    0 -0.79890592144E+02 -0.11296619505E+03 -0.47139506634E+02  0.14624667867E+03  0.46999998093E+01 0. -1.
       -5    1    3    3    0  502 -0.62142356701E+02 -0.16867571244E+03  0.72860845738E+02  0.19402051773E+03  0.46999998093E+01 0. -1.
</event>
<event>
10   0  0.1583500E-03  0.2200207E+03  0.7818609E-02  0.1141097E+00
        2   -1    0    0  503    0  0.00000000000E+00  0.00000000000E+00  0.23297186468E+04  0.23297186468E+04  0.00000000000E+00 0. -1.
       21   -1    0    0  501  503  0.00000000000E+00  0.00000000000E+00 -0.20189908310E+02  0.20189908310E+02  0.25500000920E-02 0.  1.
       25    2    1    2    0    0 -0.70826383870E+02 -0.11602296198E+03  0.14884573600E+04  0.14998689485E+04  0.12499538293E+03 0.  0.
        6    2    1    2  501    0  0.70826383870E+02  0.11602296198E+03  0.82107137850E+03  0.85003960663E+03  0.17300699376E+03 0.  0.
       24    2    4    4    0    0  0.93678692587E+02  0.24534903149E+02  0.48160831812E+03  0.49769098341E+03  0.79825334139E+02 0.  0.
      -13    1    5    5    0    0  0.31638330130E+02  0.47702852484E+02  0.17936414056E+03  0.18827653107E+03  0.10565999895E+00 0.  1.
       14    1    5    5    0    0  0.62040362457E+02 -0.23167949335E+02  0.30224417755E+03  0.30941445234E+03  0.00000000000E+00 0. -1.
        5    1    4    4  501    0 -0.22852308717E+02  0.91488058831E+02  0.33946306038E+03  0.35234862322E+03  0.46999998093E+01 0. -1.
        5    1    3    3  502    0  0.17627848040E+02 -0.22089299786E+02  0.72541056884E+03  0.72597607507E+03  0.46999998093E+01 0. -1.
       -5    1    3    3    0  502 -0.88454231911E+02 -0.93933662194E+02  0.76304679120E+03  0.77389287346E+03  0.46999998093E+01 0. -1.
</event>
<event>
10   0  0.1583500E-03  0.2616316E+03  0.7818609E-02  0.1110695E+00
       21   -1    0    0  501  503  0.00000000000E+00  0.00000000000E+00  0.15187957155E+03  0.15187957155E+03  0.00000000000E+00 0. -1.
        4   -1    0    0  503    0  0.00000000000E+00  0.00000000000E+00 -0.50846332398E+03  0.50846491003E+03  0.12699999809E+01 0.  1.
       25    2    1    2    0    0  0.66261048638E+02  0.18520093207E+03 -0.32044066470E+03  0.39622821751E+03  0.12499867579E+03 0.  0.
        6    2    1    2  501    0 -0.66261048638E+02 -0.18520093207E+03 -0.36143087738E+02  0.26411626407E+03  0.17251424970E+03 0.  0.
       24    2    4    4    0    0 -0.18519549674E+02 -0.18949438387E+03 -0.50319726416E+01  0.20677800518E+03  0.80502965405E+02 0.  0.
      -13    1    5    5    0    0 -0.90551089760E+01  0.54442616402E+01 -0.48100958050E+01  0.11609615371E+02  0.10565999895E+00 0.  1.
       14    1    5    5    0    0 -0.94644406977E+01 -0.19493864551E+03 -0.22187683664E+00  0.19516838981E+03  0.00000000000E+00 0. -1.
        5    1    4    4  501    0 -0.47741498965E+02  0.42934518007E+01 -0.31111115097E+02  0.57338258890E+02  0.46999998093E+01 0. -1.
        5    1    3    3  502    0  0.56202876632E+02  0.18372106459E+03 -0.20785394047E+03  0.28308575288E+03  0.46999998093E+01 0. -1.
       -5    1    3    3    0  502  0.10058172006E+02  0.14798674811E+01 -0.11258672422E+03  0.11314246462E+03  0.46999998093E+01 0. -1.
</event>
<event>
10   0  0.1583500E-03  0.1754948E+03  0.7818609E-02  0.1186291E+00
       -2   -1    0    0    0  501  0.00000000000E+00  0.00000000000E+00  0.87167018258E+02  0.87167018295E+02  0.00000000000E+00 0. -1.
       21   -1    0    0  501  503  0.00000000000E+00  0.00000000000E+00 -0.48464629522E+03  0.48464629522E+03  0.25500000920E-02 0. -1.
       25    2    1    2    0    0 -0.18806282055E+02  0.19578554902E+02  0.98590568415E+01  0.12827873004E+03  0.12498494118E+03 0.  0.
       -6    2    1    2    0  503  0.18806282055E+02 -0.19578554902E+02 -0.40733833381E+03  0.44353458348E+03  0.17338227273E+03 0.  0.
      -24    2    4    4    0    0  0.38219578080E+02 -0.75651144140E+02 -0.26023529953E+03  0.28484493663E+03  0.78932851483E+02 0.  0.
       13    1    5    5    0    0 -0.17577029022E+02 -0.48684615022E+02 -0.14566886823E+03  0.15459163634E+03  0.10565999895E+00 0. -1.
      -14    1    5    5    0    0  0.55796607102E+02 -0.26966529119E+02 -0.11456643130E+03  0.13025330029E+03  0.00000000000E+00 0.  1.
       -5    1    4    4    0  503 -0.19413296025E+02  0.56072589239E+02 -0.14710303428E+03  0.15868964685E+03  0.46999998093E+01 0.  1.
        5    1    3    3  502    0 -0.21218464064E+02 -0.45049494321E+02 -0.23606566609E+02  0.55308590120E+02  0.46999998093E+01 0.  1.
       -5    1    3    3    0  502  0.24121820090E+01  0.64628049223E+02  0.33465623451E+02  0.72970139917E+02  0.46999998093E+01 0.  1.
</event>
<event>
10   0  0.1583500E-03  0.2024947E+03  0.7818609E-02  0.1156475E+00
        2   -1    0    0  503    0  0.00000000000E+00  0.00000000000E+00  0.11062855089E+03  0.11062855092E+03  0.00000000000E+00 0.  1.
       21   -1    0    0  501  503  0.00000000000E+00  0.00000000000E+00 -0.37565809016E+03  0.37565809016E+03  0.25500000920E-02 0.  1.
       25    2    1    2    0    0  0.45115489252E+02 -0.96798669943E+02 -0.15812551632E+02  0.16517419449E+03  0.12500835117E+03 0.  0.
        6    2    1    2  501    0 -0.45115489252E+02  0.96798669943E+02 -0.24921698764E+03  0.32111244659E+03  0.17204274631E+03 0.  0.
       24    2    4    4    0    0 -0.67386852470E+02  0.12601317844E+03 -0.18596177570E+03  0.24781297209E+03  0.80057342512E+02 0.  0.
      -13    1    5    5    0    0  0.12847942622E+02  0.34740625665E+02 -0.19939599441E+02  0.42066370073E+02  0.10565999895E+00 0.  1.
       14    1    5    5    0    0 -0.80234795092E+02  0.91272552774E+02 -0.16602217625E+03  0.20574660202E+03  0.00000000000E+00 0. -1.
        5    1    4    4  501    0  0.22271363218E+02 -0.29214508496E+02 -0.63255211942E+02  0.73299474502E+02  0.46999998093E+01 0. -1.
        5    1    3    3  502    0  0.74605525941E+02 -0.21671629628E+02 -0.29393762341E+02  0.83196918780E+02  0.46999998093E+01 0.  1.
       -5    1    3    3    0  502 -0.29490036689E+02 -0.75127040315E+02  0.13581210708E+02  0.81977275711E+02  0.46999998093E+01 0.  1.
</event>
<event>
10   0  0.1583500E-03  0.1874670E+03  0.7818609E-02  0.1171600E+00
        2   -1    0    0  503    0  0.00000000000E+00  0.00000000000E+00  0.35677186186E+04  0.35677186186E+04  0.00000000000E+00 0.  1.
       21   -1    0    0  501  503  0.00000000000E+00  0.00000000000E+00 -0.18822535839E+02  0.18822535839E+02  0.25500000920E-02 0.  1.
       25    2    1    2    0    0  0.34199840104E+02  0.67405428421E+02  0.30514291522E+04  0.30549236062E+04  0.12500099054E+03 0.  0.
        6    2    1    2  501    0 -0.34199840104E+02 -0.67405428421E+02  0.49746693050E+03  0.53161754824E+03  0.17155392682E+03 0.  0.
       24    2    4    4    0    0 -0.56158810179E+02 -0.99216248069E+02  0.30542054658E+03  0.33566340006E+03  0.79940803245E+02 0.  0.
      -11    1    5    5    0    0 -0.36980012787E+02 -0.22015817092E+02  0.19427377018E+03  0.19898370619E+03  0.51099999109E-03 0.  1.
       12    1    5    5    0    0 -0.19178797392E+02 -0.77200430977E+02  0.11114677640E+03  0.13667969387E+03  0.00000000000E+00 0. -1.
        5    1    4    4  501    0  0.21958970074E+02  0.31810819647E+02  0.19204638392E+03  0.19595414818E+03  0.46999998093E+01 0. -1.
        5    1    3    3  502    0 -0.18520652506E+02  0.74845172295E+01  0.85911228986E+02  0.88328148579E+02  0.46999998093E+01 0. -1.
       -5    1    3    3    0  502  0.52720492611E+02  0.59920911192E+02  0.29655179232E+04  0.29665954576E+04  0.46999998093E+01 0. -1.
</event>
<event>
10   0  0.1583500E-03  0.1823298E+03  0.7818609E-02  0.1177593E+00
       21   -1    0    0  501  503  0.00000000000E+00  0.00000000000E+00  0.68328817718E+02  0.68328817718E+02  0.00000000000E+00 0. -1.
        2   -1    0    0  503    0  0.00000000000E+00  0.00000000000E+00 -0.63559968620E+03  0.63559968620E+03  0.25500000920E-02 0. -1.
       25    2    1    2    0    0 -0.40287066258E+02 -0.44253575291E+02 -0.48406128414E+03  0.50350894754E+03  0.12499802725E+03 0.  0.
        6    2    1    2  501    0  0.40287066258E+02  0.44253575291E+02 -0.83209584343E+02  0.20041955638E+03  0.17222873460E+03 0.  0.
       24    2    4    4    0    0 -0.20323940964E+02 -0.32876021911E+01 -0.90411569055E+02  0.12290945166E+03  0.80675960378E+02 0.  0.
      -13    1    5    5    0    0 -0.28587219927E+02  0.34354142204E+02 -0.50208834393E+02  0.67218854832E+02  0.10565999895E+00 0.  1.
       14    1    5    5    0    0  0.82632789630E+01 -0.37641744395E+02 -0.40202734662E+02  0.55690596824E+02  0.00000000000E+00 0. -1.
        5    1    4    4  501    0  0.60611007222E+02  0.47541177482E+02  0.72019847126E+01  0.77510104727E+02  0.46999998093E+01 0. -1.
        5    1    3    3  502    0 -0.45238531861E+01  0.43214478336E+02 -0.13874598305E+03  0.14546647104E+03  0.46999998093E+01 0.  1.
       -5    1    3    3    0  502 -0.35763213072E+02 -0.87468053627E+02 -0.34531530109E+03  0.35804247650E+03  0.46999998093E+01 0.  1.
</event>
<event>
10   0  0.1583500E-03  0.2115139E+03  0.7818609E-02  0.1147567E+00
        2   -1    0    0  503    0  0.00000000000E+00  0.00000000000E+00  0.13357556968E+03  0.13357556971E+03  0.00000000000E+00 0.  1.
       21   -1    0    0  501  503  0.00000000000E+00  0.00000000000E+00 -0.29913431906E+03  0.29913431906E+03  0.25500000920E-02 0. -1.
       25    2    1    2    0    0  0.12184434057E+03  0.34997059927E+02 -0.27550400992E+02  0.18015412149E+03  0.12500258142E+03 0.  0.
        6    2    1    2  501    0 -0.12184434057E+03 -0.34997059927E+02 -0.13800834838E+03  0.25255576728E+03  0.16931412767E+03 0.  0.
       24    2    4    4    0    0 -0.99650086492E+02 -0.75197198041E+02 -0.14308736789E+03  0.20611739461E+03  0.80160009854E+02 0.  0.
      -13    1    5    5    0    0  0.11952546021E+02  0.17768514677E+01 -0.67278535088E+01  0.13830970118E+02  0.10565999895E+00 0.  1.
       14    1    5    5    0    0 -0.11160263251E+03 -0.76974049509E+02 -0.13635951439E+03  0.19228642450E+03  0.00000000000E+00 0. -1.
        5    1    4    4  501    0 -0.22194254075E+02  0.40200138114E+02  0.50790195113E+01  0.46438372665E+02  0.46999998093E+01 0. -1.
        5    1    3    3  502    0  0.80061796201E+01  0.67846587433E+01  0.42117891637E+02  0.43659332341E+02  0.46999998093E+01 0.  1.
       -5    1    3    3    0  502  0.11383816095E+03  0.28212401183E+02 -0.69668292629E+02  0.13649478915E+03  0.46999998093E+01 0.  1.
</event>
<event>
10   0  0.1583500E-03  0.1853516E+03  0.7818609E-02  0.1174625E+00
       21   -1    0    0  501  503  0.00000000000E+00  0.00000000000E+00  0.82478768541E+02  0.82478768541E+02  0.00000000000E+00 0.  1.
        2   -1    0    0  503    0  0.00000000000E+00  0.00000000000E+00 -0.33137878431E+03  0.33137878432E+03  0.25500000920E-02 0.  1.
       25    2    1    2    0    0  0.60992357845E+02 -0.23496232939E+02 -0.14062738024E+03  0.19919927757E+03  0.12502860247E+03 0.  0.
        6    2    1    2  501    0 -0.60992357845E+02  0.23496232939E+02 -0.10827263553E+03  0.21465827529E+03  0.17344471992E+03 0.  0.
       24    2    4    4    0    0 -0.32046686374E+02 -0.44451512901E+02 -0.19594804363E+02  0.99156778327E+02  0.80281898479E+02 0.  0.
      -13    1    5    5    0    0 -0.37579710154E+02 -0.23697846265E+02  0.24045292730E+02  0.50517420752E+02  0.10565999895E+00 0.  1.
       14    1    5    5    0    0  0.55330237804E+01 -0.20753666635E+02 -0.43640097094E+02  0.48639357575E+02  0.00000000000E+00 0. -1.
        5    1    4    4  501    0 -0.28945671471E+02  0.67947745840E+02 -0.88677831167E+02  0.11550149696E+03  0.46999998093E+01 0. -1.
        5    1    3    3  502    0  0.66947910929E+02  0.25425838499E+02 -0.29595617077E+02  0.77630448856E+02  0.46999998093E+01 0.  1.
       -5    1    3    3    0  502 -0.59555530844E+01 -0.48922071438E+02 -0.11103176316E+03  0.12156882872E+03  0.46999998093E+01 0.  1.
</event>
<event>
10   0  0.1583500E-03  0.1710049E+03  0.7818609E-02  0.1187553E+00
       21   -1    0    0  501  503  0.00000000000E+00  0.00000000000E+00  0.31217606559E+02  0.31217606559E+02  0.00000000000E+00 0.  1.
        2   -1    0    0  503    0  0.00000000000E+00  0.00000000000E+00 -0.84508119882E+03  0.84508119882E+03  0.25500000920E-02 0.  1.
       25    2    1    2    0    0  0.49413483718E+02 -0.13021658544E+01 -0.51212284078E+03  0.52947007111E+03  0.12500145655E+03 0.  0.
        6    2    1    2  501    0 -0.49413483718E+02  0.13021658544E+01 -0.30174075148E+03  0.34682873427E+03  0.16370492298E+03 0.  0.
       24    2    4    4    0    0 -0.16601493779E+02  0.26954312031E+02 -0.67967319310E+02  0.10932764612E+03  0.79566533039E+02 0.  0.
      -11    1    5    5    0    0  0.31205982731E+02  0.34948496101E+01 -0.17443187910E+02  0.35920636641E+02  0.51099999109E-03 0.  1.
       12    1    5    5    0    0 -0.47807476510E+02  0.23459462421E+02 -0.50524131400E+02  0.73407009482E+02  0.00000000000E+00 0. -1.
        5    1    4    4  501    0 -0.32811989939E+02 -0.25652146177E+02 -0.23377343217E+03  0.23750108815E+03  0.46999998093E+01 0. -1.
        5    1    3    3  502    0 -0.32936744498E+02 -0.25943817767E+01 -0.50473903251E+02  0.60508386712E+02  0.46999998093E+01 0. -1.
       -5    1    3    3    0  502  0.82350228216E+02  0.12922159223E+01 -0.46164893753E+03  0.46896168440E+03  0.46999998093E+01 0. -1.
</event>
<event>
10   0  0.1583500E-03  0.1757502E+03  0.7818609E-02  0.1184167E+00
       21   -1    0    0  501  503  0.00000000000E+00  0.00000000000E+00  0.11879299493E+03  0.11879299493E+03  0.00000000000E+00 0. -1.
       -2   -1    0    0    0  501  0.00000000000E+00  0.00000000000E+00 -0.11922235812E+04  0.11922235812E+04  0.25500000920E-02 0. -1.
       25    2    1    2    0    0 -0.84117406365E+01  0.46126588228E+02 -0.11210154918E+04  0.11289383957E+04  0.12501099542E+03 0.  0.
       -6    2    1    2    0  503  0.84117406365E+01 -0.46126588228E+02  0.47584905537E+02  0.18207818039E+03  0.16938040328E+03 0.  0.
      -24    2    4    4    0    0 -0.67081142458E+01  0.60385676657E+01  0.81206815112E+02  0.11802869715E+03  0.85174899087E+02 0.  0.
       15    1    5    5    0    0  0.10512940289E+02 -0.19361052950E+02  0.84334234136E+02  0.87182527269E+02  0.17769999504E+01 0. -1.
      -16    1    5    5    0    0 -0.17221054534E+02  0.25399620616E+02 -0.31274190237E+01  0.30846169883E+02  0.00000000000E+00 0.  1.
       -5    1    4    4    0  503  0.15119854882E+02 -0.52165155893E+02 -0.33621909575E+02  0.64049483235E+02  0.46999998093E+01 0.  1.
        5    1    3    3  502    0  0.52154877644E+02  0.31703841213E+02 -0.34285708561E+03  0.34827910641E+03  0.46999998093E+01 0.  1.
       -5    1    3    3    0  502 -0.60566618280E+02  0.14422747014E+02 -0.77815840621E+03  0.78065928934E+03  0.46999998093E+01 0.  1.
</event>
<event>
10   0  0.1583500E-03  0.1788303E+03  0.7818609E-02  0.1181818E+00
        2   -1    0    0  503    0  0.00000000000E+00  0.00000000000E+00  0.12235594790E+04  0.12235594790E+04  0.00000000000E+00 0.  1.
       21   -1    0    0  501  503  0.00000000000E+00  0.00000000000E+00 -0.22608734686E+02  0.22608734686E+02  0.25500000920E-02 0.  1.
       25    2    1    2    0    0 -0.23578392696E+02  0.40755716186E+02  0.73581163442E+03  0.74783633449E+03  0.12499381121E+03 0.  0.
        6    2    1    2  501    0  0.23578392696E+02 -0.40755716186E+02  0.46513910993E+03  0.49833187922E+03  0.17252043724E+03 0.  0.
       24    2    4    4    0    0  0.65205285381E+02  0.20833836390E+02  0.24942486415E+03  0.27011970381E+03  0.77885258855E+02 0.  0.
      -13    1    5    5    0    0  0.52909153406E+02 -0.23337444215E+02  0.13699413227E+03  0.14869908627E+03  0.10565999895E+00 0.  1.
       14    1    5    5    0    0  0.12296131975E+02  0.44171280604E+02  0.11243073188E+03  0.12142061754E+03  0.00000000000E+00 0. -1.
        5    1    4    4  501    0 -0.41626892686E+02 -0.61589552576E+02  0.21571424577E+03  0.22821217542E+03  0.46999998093E+01 0. -1.
        5    1    3    3  502    0 -0.54937390225E+02  0.70784017112E+02  0.47680048094E+03  0.48516933389E+03  0.46999998093E+01 0.  1.
       -5    1    3    3    0  502  0.31358997529E+02 -0.30028300926E+02  0.25901115348E+03  0.26266700061E+03  0.46999998093E+01 0.  1.
</event>
<event>
10   0  0.1583500E-03  0.2138706E+03  0.7818609E-02  0.1146038E+00
        2   -1    0    0  503    0  0.00000000000E+00  0.00000000000E+00  0.19417446172E+04  0.19417446172E+04  0.00000000000E+00 0. -1.
       21   -1    0    0  501  503  0.00000000000E+00  0.00000000000E+00 -0.40605978264E+02  0.40605978264E+02  0.25500000920E-02 0.  1.
       25    2    1    2    0    0 -0.60962559174E+02  0.11206080001E+03  0.16163985966E+04  0.16262361038E+04  0.12500154392E+03 0.  0.
        6    2    1    2  501    0  0.60962559174E+02 -0.11206080001E+03  0.28474004234E+03  0.35611449158E+03  0.17165833182E+03 0.  0.
       24    2    4    4    0    0  0.51565276790E+02 -0.11541420906E+03  0.12295683972E+03  0.19395577638E+03  0.80752964860E+02 0.  0.
      -15    1    5    5    0    0  0.63753907170E+02 -0.11716020227E+03  0.12328136617E+03  0.18163845036E+03  0.17769999504E+01 0.  1.
       16    1    5    5    0    0 -0.12188630380E+02  0.17459932159E+01 -0.32452644566E+00  0.12317326019E+02  0.00000000000E+00 0. -1.
        5    1    4    4  501    0  0.93972823841E+01  0.33534090467E+01  0.16178320262E+03  0.16215871520E+03  0.46999998093E+01 0. -1.
        5    1    3    3  502    0 -0.33075986878E+02  0.12423242521E+02  0.97509910224E+02  0.10382018326E+03  0.46999998093E+01 0. -1.
       -5    1    3    3    0  502 -0.27886572296E+02  0.99637557487E+02  0.15188886863E+04  0.15224159206E+04  0.46999998093E+01 0. -1.
</event>
<event>
10   0  0.1583500E-03  0.2153237E+03  0.7818609E-02  0.1144868E+00
        2   -1    0    0  503    0  0.00000000000E+00  0.00000000000E+00  0.15983554631E+04  0.15983554631E+04  0.00000000000E+00 0. -1.
       21   -1    0    0  501  503  0.00000000000E+00  0.00000000000E+00 -0.30681996574E+02  0.30681996574E+02  0.25500000920E-02 0.  1.
       25    2    1    2    0    0 -0.74057564746E+02 -0.10621506985E+03  0.10941862110E+04  0.11088889511E+04  0.12500030974E+03 0.  0.
        6    2    1    2  501    0  0.74057564746E+02  0.10621506985E+03  0.47348725546E+03  0.52014850857E+03  0.17204105884E+03 0.  0.
       24    2    4    4    0    0 -0.11953292205E+02  0.71632723483E+02  0.17194343426E+03  0.20464165873E+03  0.83901940596E+02 0.  0.
      -15    1    5    5    0    0 -0.11812336672E+02  0.35482950729E+02  0.10055342362E+02  0.38766463972E+02  0.17769999504E+01 0.  1.
       16    1    5    5    0    0 -0.14095553280E+00  0.36149772754E+02  0.16188809190E+03  0.16587519476E+03  0.00000000000E+00 0. -1.
        5    1    4    4  501    0  0.86010856951E+02  0.34582346365E+02  0.30154382120E+03  0.31550684984E+03  0.46999998093E+01 0. -1.
        5    1    3    3  502    0 -0.23837641352E+02 -0.75581224297E+02  0.94686809066E+03  0.95019052074E+03  0.46999998093E+01 0. -1.
       -5    1    3    3    0  502 -0.50219923394E+02 -0.30633845550E+02  0.14731812039E+03  0.15869843034E+03  0.46999998093E+01 0. -1.
</event>
<event>
10   0  0.1583500E-03  0.1683939E+03  0.7818609E-02  0.1192686E+00
        2   -1    0    0  503    0  0.00000000000E+00  0.00000000000E+00  0.12929438475E+04  0.12929438475E+04  0.00000000000E+00 0.  1.
       21   -1    0    0  501  503  0.00000000000E+00  0.00000000000E+00 -0.17402935558E+02  0.17402935558E+02  0.25500000920E-02 0.  1.
       25    2    1    2    0    0 -0.10963298666E+02  0.70280829409E+01  0.67708379034E+03  0.68864956847E+03  0.12500472449E+03 0.  0.
        6    2    1    2  501    0  0.10963298666E+02 -0.70280829409E+01  0.59845712163E+03  0.62169721462E+03  0.16788958386E+03 0.  0.
       24    2    4    4    0    0  0.49534443388E+02  0.33121211235E+02  0.25432485087E+03  0.27305870728E+03  0.79556597040E+02 0.  0.
      -15    1    5    5    0    0  0.23021577761E+02  0.47385499911E+02  0.77739828865E+02  0.93925594835E+02  0.17769999504E+01 0.  1.
       16    1    5    5    0    0  0.26512865627E+02 -0.14264288676E+02  0.17658502201E+03  0.17913311244E+03  0.00000000000E+00 0. -1.
        5    1    4    4  501    0 -0.38571144722E+02 -0.40149294176E+02  0.34413227076E+03  0.34863850734E+03  0.46999998093E+01 0. -1.
        5    1    3    3  502    0  0.62512278279E+00  0.33806649680E+02  0.64143549645E+03  0.64234326217E+03  0.46999998093E+01 0. -1.
       -5    1    3    3    0  502 -0.11588421449E+02 -0.26778566739E+02  0.35648293889E+02  0.46306306305E+02  0.46999998093E+01 0. -1.
</event>
<event>
10   0  0.1583500E-03  0.2031996E+03  0.7818609E-02  0.1156242E+00
       21   -1    0    0  501  503  0.00000000000E+00  0.00000000000E+00  0.16298859484E+03  0.16298859484E+03  0.00000000000E+00 0.  1.
        2   -1    0    0  503    0  0.00000000000E+00  0.00000000000E+00 -0.10397124608E+04  0.10397124608E+04  0.25500000920E-02 0.  1.
       25    2    1    2    0    0 -0.53441433416E+02 -0.91049458046E+02 -0.96671875197E+03  0.98046432109E+03  0.12497659345E+03 0.  0.
        6    2    1    2  501    0  0.53441433416E+02  0.91049458046E+02  0.89994886027E+02  0.22223673454E+03  0.17362055193E+03 0.  0.
       24    2    4    4    0    0  0.70535958952E+02  0.11303968546E+03  0.33844115580E+02  0.15938140919E+03  0.80645628776E+02 0.  0.
      -15    1    5    5    0    0  0.25815971134E+02  0.30336428759E+02  0.50032826227E+02  0.63978158027E+02  0.17769999504E+01 0.  1.
       16    1    5    5    0    0  0.44719987818E+02  0.82703256701E+02 -0.16188710647E+02  0.95403251160E+02  0.00000000000E+00 0. -1.
        5    1    4    4  501    0 -0.17094525536E+02 -0.21990227414E+02  0.56150770447E+02  0.62855325351E+02  0.46999998093E+01 0. -1.
        5    1    3    3  502    0 -0.13053274604E+02 -0.13602910964E+02 -0.14518861903E+02  0.24255195604E+02  0.46999998093E+01 0.  1.
       -5    1    3    3    0  502 -0.40388158812E+02 -0.77446547081E+02 -0.95219989007E+03  0.95620912549E+03  0.46999998093E+01 0.  1.
</event>
<event>
10   0  0.1583500E-03  0.2052696E+03  0.7818609E-02  0.1155216E+00
       -2   -1    0    0    0  501  0.00000000000E+00  0.00000000000E+00  0.64433289962E+03  0.64433289963E+03  0.00000000000E+00 0. -1.
       21   -1    0    0  501  503  0.00000000000E+00  0.00000000000E+00 -0.16901904500E+03  0.16901904500E+03  0.25500000920E-02 0. -1.
       25    2    1    2    0    0  0.90089163048E+02  0.51830114147E+02  0.56604328334E+03  0.58892504826E+03  0.12500118328E+03 0.  0.
       -6    2    1    2    0  503 -0.90089163048E+02 -0.51830114147E+02 -0.90729428722E+02  0.22442689636E+03  0.17701182035E+03 0.  0.
      -24    2    4    4    0    0  0.63599056614E+01  0.79803317000E+01 -0.71361644473E+02  0.10920140720E+03  0.82026391724E+02 0.  0.
       11    1    5    5    0    0 -0.13947788482E+02  0.15868322194E+01 -0.83514920534E+02  0.84686485298E+02  0.51099999109E-03 0. -1.
      -12    1    5    5    0    0  0.20307694143E+02  0.63934994806E+01  0.12153276061E+02  0.24514921906E+02  0.00000000000E+00 0.  1.
       -5    1    4    4    0  503 -0.96449068710E+02 -0.59810445847E+02 -0.19367784249E+02  0.11522548916E+03  0.46999998093E+01 0.  1.
        5    1    3    3  502    0  0.47370367692E+02  0.91120491705E+02  0.39866245944E+03  0.41170467851E+03  0.46999998093E+01 0. -1.
       -5    1    3    3    0  502  0.42718795356E+02 -0.39290377557E+02  0.16738082390E+03  0.17722036975E+03  0.46999998093E+01 0. -1.
</event>
<event>
10   0  0.1583500E-03  0.1856214E+03  0.7818609E-02  0.1176381E+00
        2   -1    0    0  503    0  0.00000000000E+00  0.00000000000E+00  0.10665561806E+04  0.10665561806E+04  0.00000000000E+00 0. -1.
       21   -1    0    0  501  503  0.00000000000E+00  0.00000000000E+00 -0.36664861560E+02  0.36664861560E+02  0.25500000920E-02 0. -1.
       25    2    1    2    0    0 -0.50910346387E+02 -0.16408987975E+01  0.78183478703E+03  0.79340278299E+03  0.12501114320E+03 0.  0.
        6    2    1    2  501    0  0.50910346387E+02  0.16408987975E+01  0.24805653199E+03  0.30981825916E+03  0.17849581151E+03 0.  0.
       24    2    4    4    0    0  0.58574011574E+01  0.63736199855E+02  0.18103060352E+03  0.20783708750E+03  0.79545981722E+02 0.  0.
      -11    1    5    5    0    0 -0.18922919249E+02 -0.52738601150E+01  0.83719700749E+02  0.85993480957E+02  0.51099999109E-03 0.  1.
       12    1    5    5    0    0  0.24780320407E+02  0.69010059970E+02  0.97310902776E+02  0.12184360654E+03  0.00000000000E+00 0. -1.
        5    1    4    4  501    0  0.45052945230E+02 -0.62095301057E+02  0.67025928469E+02  0.10198117166E+03  0.46999998093E+01 0. -1.
        5    1    3    3  502    0 -0.14055334292E+02  0.13083804086E+02  0.71678133147E+03  0.71705390696E+03  0.46999998093E+01 0. -1.
       -5    1    3    3    0  502 -0.36855012095E+02 -0.14724702884E+02  0.65053455563E+02  0.76348876026E+02  0.46999998093E+01 0. -1.
</event>
<event>
10   0  0.1583500E-03  0.1951885E+03  0.7818609E-02  0.1163711E+00
        2   -1    0    0  503    0  0.00000000000E+00  0.00000000000E+00  0.43950130553E+03  0.43950130554E+03  0.00000000000E+00 0.  1.
       21   -1    0    0  501  503  0.00000000000E+00  0.00000000000E+00 -0.92229960090E+02  0.92229960090E+02  0.25500000920E-02 0.  1.
       25    2    1    2    0    0  0.58790931623E+02  0.70574728096E+02  0.28905036122E+03  0.32804462112E+03  0.12500398488E+03 0.  0.
        6    2    1    2  501    0 -0.58790931623E+02 -0.70574728096E+02  0.58220984221E+02  0.20368664451E+03  0.17222485379E+03 0.  0.
       24    2    4    4    0    0 -0.84497478766E+02 -0.71663547430E+02  0.89092009898E+02  0.16322527629E+03  0.80184890382E+02 0.  0.
      -11    1    5    5    0    0 -0.79792691082E+02 -0.27423068507E+02  0.30633132522E+02  0.89762392151E+02  0.51099999109E-03 0.  1.
       12    1    5    5    0    0 -0.47047876846E+01 -0.44240478923E+02  0.58458877376E+02  0.73462884143E+02  0.00000000000E+00 0. -1.
        5    1    4    4  501    0  0.25706547144E+02  0.10888193335E+01 -0.30871025676E+02  0.40461368218E+02  0.46999998093E+01 0. -1.
        5    1    3    3  502    0  0.74394132118E+02  0.61103294757E+02  0.10308513137E+03  0.14112665883E+03  0.46999998093E+01 0. -1.
       -5    1    3    3    0  502 -0.15603200495E+02  0.94714333389E+01  0.18596522985E+03  0.18691796229E+03  0.46999998093E+01 0. -1.
</event>
<event>
10   0  0.1583500E-03  0.3770160E+03  0.7818609E-02  0.1053912E+00
       21   -1    0    0  501  503  0.00000000000E+00  0.00000000000E+00  0.42807496127E+02  0.42807496127E+02  0.00000000000E+00 0.  1.
        2   -1    0    0  503    0  0.00000000000E+00  0.00000000000E+00 -0.35775679851E+04  0.35775679851E+04  0.25500000920E-02 0. -1.
       25    2    1    2    0    0 -0.36684601827E+02  0.33296587269E+03 -0.23508500976E+04  0.23778840945E+04  0.12499821371E+03 0.  0.
        6    2    1    2  501    0  0.36684601827E+02 -0.33296587269E+03 -0.11839103914E+04  0.12424913867E+04  0.17299999636E+03 0.  0.
       24    2    4    4    0    0  0.78457604124E+02 -0.20258363078E+03 -0.86548923386E+03  0.89585232903E+03  0.79272053088E+02 0.  0.
      -13    1    5    5    0    0 -0.10153022492E+01 -0.99747800482E+02 -0.32545266095E+03  0.34039697446E+03  0.10565999895E+00 0.  1.
       14    1    5    5    0    0  0.79472906373E+02 -0.10283583030E+03 -0.54003657291E+03  0.55545535457E+03  0.00000000000E+00 0. -1.
        5    1    4    4  501    0 -0.41773002297E+02 -0.13038224191E+03 -0.31842115759E+03  0.34663905771E+03  0.46999998093E+01 0. -1.
        5    1    3    3  502    0 -0.11472325738E+02  0.59204265629E+01 -0.21281657381E+02  0.25331100402E+02  0.46999998093E+01 0.  1.
       -5    1    3    3    0  502 -0.25212276089E+02  0.32704544613E+03 -0.23295684402E+04  0.23525529941E+04  0.46999998093E+01 0.  1.
</event>
<event>
10   0  0.1583500E-03  0.1882004E+03  0.7818609E-02  0.1171045E+00
        2   -1    0    0  503    0  0.00000000000E+00  0.00000000000E+00  0.36291898735E+03  0.36291898736E+03  0.00000000000E+00 0.  1.
       21   -1    0    0  501  503  0.00000000000E+00  0.00000000000E+00 -0.83554672301E+02  0.83554672301E+02  0.25500000920E-02 0.  1.
       25    2    1    2    0    0  0.38807544822E+02  0.65176167145E+02  0.18540298241E+03  0.23612131043E+03  0.12500019622E+03 0.  0.
        6    2    1    2  501    0 -0.38807544822E+02 -0.65176167145E+02  0.93961332640E+02  0.21035234923E+03  0.17223652486E+03 0.  0.
       24    2    4    4    0    0 -0.69916695327E+02  0.11132312627E+02  0.38213624327E+02  0.11074983766E+03  0.76111581172E+02 0.  0.
      -15    1    5    5    0    0 -0.70252564922E+02 -0.27399661905E+01  0.54775739630E+02  0.89142973216E+02  0.17769999504E+01 0.  1.
       16    1    5    5    0    0  0.33586959572E+00  0.13872278817E+02 -0.16562115303E+02  0.21606864448E+02  0.00000000000E+00 0. -1.
        5    1    4    4  501    0  0.31109150505E+02 -0.76308479772E+02  0.55747708312E+02  0.99602511567E+02  0.46999998093E+01 0. -1.
        5    1    3    3  502    0  0.83159348679E+02  0.56730349200E+02  0.12505277663E+03  0.16060540693E+03  0.46999998093E+01 0. -1.
       -5    1    3    3    0  502 -0.44351803857E+02  0.84458179449E+01  0.60350205781E+02  0.75515903505E+02  0.46999998093E+01 0. -1.
</event>
<event>
10   0  0.1583500E-03  0.2060798E+03  0.7818609E-02  0.1153155E+00
       21   -1    0    0  501  503  0.00000000000E+00  0.00000000000E+00  0.39639868017E+03  0.39639868017E+03  0.00000000000E+00 0.  1.
        2   -1    0    0  503    0  0.00000000000E+00  0.00000000000E+00 -0.11403193498E+03  0.11403193500E+03  0.25500000920E-02 0. -1.
       25    2    1    2    0    0 -0.59622268720E+02 -0.96204387395E+02  0.10061825252E+02  0.16893560509E+03  0.12501159650E+03 0.  0.
        6    2    1    2  501    0  0.59622268720E+02  0.96204387395E+02  0.27230491995E+03  0.34149501009E+03  0.17221722737E+03 0.  0.
       24    2    4    4    0    0  0.11661224976E+02  0.12238275745E+03  0.22780048890E+03  0.27086708957E+03  0.79764616082E+02 0.  0.
      -11    1    5    5    0    0 -0.31852275826E+02  0.39415688363E+02  0.10324074923E+03  0.11500789654E+03  0.51099999109E-03 0.  1.
       12    1    5    5    0    0  0.43513500802E+02  0.82967069085E+02  0.12455973967E+03  0.15585919303E+03  0.00000000000E+00 0. -1.
        5    1    4    4  501    0  0.47961043744E+02 -0.26178370053E+02  0.44504431044E+02  0.70627920516E+02  0.46999998093E+01 0. -1.
        5    1    3    3  502    0 -0.19109573566E+02 -0.81092325047E+02 -0.48094779479E+02  0.96313751846E+02  0.46999998093E+01 0. -1.
       -5    1    3    3    0  502 -0.40512695154E+02 -0.15112062349E+02  0.58156604731E+02  0.72621853247E+02  0.46999998093E+01 0. -1.
</event>
<event>
10   0  0.1583500E-03  0.1741715E+03  0.7818609E-02  0.1187373E+00
       21   -1    0    0  501  503  0.00000000000E+00  0.00000000000E+00  0.65661856156E+02  0.65661856156E+02  0.00000000000E+00 0. -1.
        2   -1    0    0  503    0  0.00000000000E+00  0.00000000000E+00 -0.35563995350E+03  0.35563995351E+03  0.25500000920E-02 0. -1.
       25    2    1    2    0    0 -0.12505298709E+02  0.23054622847E+02 -0.15563345772E+03  0.20133772162E+03  0.12500882711E+03 0.  0.
        6    2    1    2  501    0  0.12505298709E+02 -0.23054622847E+02 -0.13434463963E+03  0.21996408805E+03  0.17218542245E+03 0.  0.
       24    2    4    4    0    0  0.46238805023E+02 -0.41381119758E+02 -0.14754225089E+03  0.17909751395E+03  0.80354088514E+02 0.  0.
      -11    1    5    5    0    0  0.22222378066E+02  0.13731827963E+02 -0.97309911575E+02  0.10075522853E+03  0.51099999109E-03 0.  1.
       12    1    5    5    0    0  0.24016426957E+02 -0.55112947721E+02 -0.50232339319E+02  0.78342285413E+02  0.00000000000E+00 0. -1.
        5    1    4    4  501    0 -0.33733506314E+02  0.18326496911E+02  0.13197611269E+02  0.40866574100E+02  0.46999998093E+01 0. -1.
        5    1    3    3  502    0  0.35885342722E+02 -0.21499402765E+02 -0.11828055566E+03  0.12554824565E+03  0.46999998093E+01 0. -1.
       -5    1    3    3    0  502 -0.48390641432E+02  0.44554025612E+02 -0.37352902058E+02  0.75789475964E+02  0.46999998093E+01 0. -1.
</event>
<event>
10   0  0.1583500E-03  0.2198776E+03  0.7818609E-02  0.1140377E+00
       21   -1    0    0  501  503  0.00000000000E+00  0.00000000000E+00  0.47136914740E+02  0.47136914740E+02  0.00000000000E+00 0.  1.
        2   -1    0    0  503    0  0.00000000000E+00  0.00000000000E+00 -0.89220632120E+03  0.89220632120E+03  0.25500000920E-02 0. -1.
       25    2    1    2    0    0 -0.10618067137E+03 -0.92439411124E+02 -0.43641382853E+03  0.47528983303E+03  0.12499606373E+03 0.  0.
        6    2    1    2  501    0  0.10618067137E+03  0.92439411124E+02 -0.40865557793E+03  0.46405340292E+03  0.16889878532E+03 0.  0.
       24    2    4    4    0    0  0.49583633659E+02  0.10925794742E+03 -0.19459399865E+03  0.24194861331E+03  0.79224184278E+02 0.  0.
      -13    1    5    5    0    0  0.31370523626E+02 -0.43490859444E+00 -0.30707492032E+02  0.43900570941E+02  0.10565999895E+00 0.  1.
       14    1    5    5    0    0  0.18213110032E+02  0.10969285601E+03 -0.16388650661E+03  0.19804804237E+03  0.00000000000E+00 0. -1.
        5    1    4    4  501    0  0.56597037708E+02 -0.16818536294E+02 -0.21406157929E+03  0.22210478960E+03  0.46999998093E+01 0. -1.
        5    1    3    3  502    0 -0.48748529541E+02  0.82953505601E+01 -0.44967921345E+02  0.67003253067E+02  0.46999998093E+01 0. -1.
       -5    1    3    3    0  502 -0.57432141826E+02 -0.10073476168E+03 -0.39144590718E+03  0.40828657996E+03  0.46999998093E+01 0. -1.
</event>
<event>
10   0  0.1583500E-03  0.1787838E+03  0.7818609E-02  0.1180818E+00
        2   -1    0    0  503    0  0.00000000000E+00  0.00000000000E+00  0.25644094014E+04  0.25644094014E+04  0.00000000000E+00 0. -1.
       21   -1    0    0  501  503  0.00000000000E+00  0.00000000000E+00 -0.10439978314E+02  0.10439978314E+02  0.25500000920E-02 0.  1.
       25    2    1    2    0    0  0.40570112274E+02  0.37656702011E+02  0.14578400794E+04  0.14642354972E+04  0.12499573158E+03 0.  0.
        6    2    1    2  501    0 -0.40570112274E+02 -0.37656702011E+02  0.10961293437E+04  0.11106138825E+04  0.16999910809E+03 0.  0.
       24    2    4    4    0    0 -0.52128618080E+02 -0.22023529297E+02  0.10809772241E+04  0.10855206191E+04  0.81491267298E+02 0.  0.
      -13    1    5    5    0    0 -0.20166297320E+01  0.14643835696E+02  0.39202169642E+02  0.41896658435E+02  0.10565999895E+00 0.  1.
       14    1    5    5    0    0 -0.50111988348E+02 -0.36667364993E+02  0.10417750545E+04  0.10436239606E+04  0.00000000000E+00 0. -1.
        5    1    4    4  501    0  0.11558505807E+02 -0.15633172715E+02  0.15152119528E+02  0.25093263439E+02  0.46999998093E+01 0. -1.
        5    1    3    3  502    0  0.15914012271E+02 -0.45510374290E+02  0.42613357069E+03  0.42887802465E+03  0.46999998093E+01 0. -1.
       -5    1    3    3    0  502  0.24656100002E+02  0.83167076302E+02  0.10317065087E+04  0.10353574725E+04  0.46999998093E+01 0. -1.
</event>
<event>
10   0  0.1583500E-03  0.2299744E+03  0.7818609E-02  0.1132963E+00
       21   -1    0    0  501  503  0.00000000000E+00  0.00000000000E+00  0.53797560567E+02  0.53797560567E+02  0.00000000000E+00 0.  1.
        2   -1    0    0  503    0  0.00000000000E+00  0.00000000000E+00 -0.11834415468E+04  0.11834415468E+04  0.25500000920E-02 0.  1.
       25    2    1    2    0    0 -0.12140226395E+03 -0.91842994903E+02 -0.86266616056E+03  0.88486799903E+03  0.12499930292E+03 0.  0.
        6    2    1    2  501    0  0.12140226395E+03  0.91842994903E+02 -0.26697782565E+03  0.35237110831E+03  0.17237921331E+03 0.  0.
       24    2    4    4    0    0  0.88889780296E+02  0.61294820203E+02 -0.71732632575E+02  0.15203881439E+03  0.79446727312E+02 0.  0.
      -15    1    5    5    0    0  0.25655250860E+02  0.63026211601E+02 -0.21890765597E+02  0.71504255766E+02  0.17769999504E+01 0.  1.
       16    1    5    5    0    0  0.63234529436E+02 -0.17313913979E+01 -0.49841866978E+02  0.80534558625E+02  0.00000000000E+00 0. -1.
        5    1    4    4  501    0  0.32512483659E+02  0.30548174700E+02 -0.19524519308E+03  0.20033229392E+03  0.46999998093E+01 0. -1.
        5    1    3    3  502    0  0.17838970319E+02 -0.20779442460E+02 -0.49206162747E+02  0.56509738466E+02  0.46999998093E+01 0. -1.
       -5    1    3    3    0  502 -0.13924123427E+03 -0.71063552442E+02 -0.81345999782E+03  0.82835826057E+03  0.46999998093E+01 0. -1.
</event>
<event>
10   0  0.1583500E-03  0.2050744E+03  0.7818609E-02  0.1153608E+00
        2   -1    0    0  503    0  0.00000000000E+00  0.00000000000E+00  0.62839207909E+02  0.62839207961E+02  0.00000000000E+00 0. -1.
       21   -1    0    0  501  503  0.00000000000E+00  0.00000000000E+00 -0.56111184087E+03  0.56111184087E+03  0.25500000920E-02 0.  1.
       25    2    1    2    0    0 -0.60490835323E+02 -0.96871453139E+02 -0.20105267604E+03  0.26284825398E+03  0.12499522587E+03 0.  0.
        6    2    1    2  501    0  0.60490835323E+02  0.96871453139E+02 -0.29721995693E+03  0.36110279485E+03  0.17032999167E+03 0.  0.
       24    2    4    4    0    0  0.10392499083E+03  0.92478734079E+02 -0.24576103381E+03  0.29345715484E+03  0.79786565377E+02 0.  0.
      -13    1    5    5    0    0  0.64223970255E+02  0.76236233596E+02 -0.22438547041E+03  0.24553112259E+03  0.10565999895E+00 0.  1.
       14    1    5    5    0    0  0.39701020573E+02  0.16242500483E+02 -0.21375563401E+02  0.47926032249E+02  0.00000000000E+00 0. -1.
        5    1    4    4  501    0 -0.43434155505E+02  0.43927190595E+01 -0.51458923122E+02  0.67645640009E+02  0.46999998093E+01 0. -1.
        5    1    3    3  502    0 -0.89352780234E+02 -0.28616366747E+02 -0.97167531106E+02  0.13515337540E+03  0.46999998093E+01 0.  1.
       -5    1    3    3    0  502  0.28861944911E+02 -0.68255086392E+02 -0.10388514493E+03  0.12769487859E+03  0.46999998093E+01 0.  1.
</event>
<event>
10   0  0.1583500E-03  0.2379932E+03  0.7818609E-02  0.1126628E+00
        4   -1    0    0  503    0  0.00000000000E+00  0.00000000000E+00  0.18378949357E+04  0.18378953745E+04  0.00000000000E+00 0. -1.
       21   -1    0    0  501  503  0.00000000000E+00  0.00000000000E+00 -0.49678899780E+02  0.49678899780E+02  0.12699999809E+01 0.  1.
       25    2    1    2    0    0  0.95478635380E+02 -0.13557116379E+03  0.14976705933E+04  0.15119981597E+04  0.12500207483E+03 0.  0.
        6    2    1    2  501    0 -0.95478635380E+02  0.13557116379E+03  0.29054544265E+03  0.37557611458E+03  0.17071922366E+03 0.  0.
       24    2    4    4    0    0 -0.88227422701E+02  0.16098832123E+03  0.20910255564E+03  0.28982271335E+03  0.81067926549E+02 0.  0.
      -11    1    5    5    0    0 -0.52785729153E+02  0.14947953342E+03  0.19152723921E+03  0.24862249994E+03  0.51099999109E-03 0.  1.
       12    1    5    5    0    0 -0.35441693549E+02  0.11508787806E+02  0.17575316423E+02  0.41200213418E+02  0.00000000000E+00 0. -1.
        5    1    4    4  501    0 -0.72512126790E+01 -0.25417157435E+02  0.81442887018E+02  0.85753401223E+02  0.46999998093E+01 0. -1.
        5    1    3    3  502    0  0.39759227561E+02 -0.13491491425E+03  0.81678625419E+03  0.82882127464E+03  0.46999998093E+01 0. -1.
       -5    1    3    3    0  502  0.55719407819E+02 -0.65624953591E+00  0.68088433910E+03  0.68317688507E+03  0.46999998093E+01 0. -1.
</event>
<event>
10   0  0.1583500E-03  0.1861593E+03  0.7818609E-02  0.1172925E+00
        2   -1    0    0  503    0  0.00000000000E+00  0.00000000000E+00  0.67604822444E+03  0.67604822444E+03  0.00000000000E+00 0. -1.
       21   -1    0    0  501  503  0.00000000000E+00  0.00000000000E+00 -0.24751396041E+03  0.24751396041E+03  0.25500000920E-02 0. -1.
       25    2    1    2    0    0  0.69798204114E+02 -0.21293895860E+02  0.63166244998E+03  0.64803297745E+03  0.12499627935E+03 0.  0.
        6    2    1    2  501    0 -0.69798204114E+02  0.21293895860E+02 -0.20312818595E+03  0.27552920740E+03  0.17126022569E+03 0.  0.
       24    2    4    4    0    0 -0.67322128043E+02  0.68173943299E+02 -0.90089091160E+02  0.15303922107E+03  0.78262400749E+02 0.  0.
      -11    1    5    5    0    0 -0.63769526003E+02  0.90761631132E+01 -0.49959319204E+02  0.81516027621E+02  0.51099999109E-03 0.  1.
       12    1    5    5    0    0 -0.35526020405E+01  0.59097780186E+02 -0.40129771956E+02  0.71523193451E+02  0.00000000000E+00 0. -1.
        5    1    4    4  501    0 -0.24760760707E+01 -0.46880047439E+02 -0.11303909479E+03  0.12248998633E+03  0.46999998093E+01 0. -1.
        5    1    3    3  502    0  0.48884988539E+02  0.15181711894E+02  0.57512956841E+03  0.57742214794E+03  0.46999998093E+01 0.  1.
       -5    1    3    3    0  502  0.20913215575E+02 -0.36475607754E+02  0.56532881574E+02  0.70610829509E+02  0.46999998093E+01 0.  1.
</event>
<event>
10   0  0.1583500E-03  0.2044874E+03  0.7818609E-02  0.1154834E+00
        4   -1    0    0  503    0  0.00000000000E+00  0.00000000000E+00  0.83624935618E+03  0.83625032054E+03  0.00000000000E+00 0.  1.
       21   -1    0    0  501  503  0.00000000000E+00  0.00000000000E+00 -0.71768976155E+02  0.71768976155E+02  0.12699999809E+01 0.  1.
       25    2    1    2    0    0  0.95085644111E+02  0.53516461975E+02  0.65576148800E+03  0.67642718152E+03  0.12500124536E+03 0.  0.
        6    2    1    2  501    0 -0.95085644111E+02 -0.53516461975E+02  0.10871889203E+03  0.23159211518E+03  0.17294455444E+03 0.  0.
       24    2    4    4    0    0 -0.12859349185E+03 -0.30090308246E+02  0.54525016686E+02  0.16354340717E+03  0.79572330552E+02 0.  0.
      -11    1    5    5    0    0 -0.40135224873E+02 -0.41658725530E+02  0.46034538675E+02  0.73928779509E+02  0.51099999109E-03 0.  1.
       12    1    5    5    0    0 -0.88458266973E+02  0.11568417285E+02  0.84904780103E+01  0.89614627663E+02  0.00000000000E+00 0. -1.
        5    1    4    4  501    0  0.33507847736E+02 -0.23426153729E+02  0.54193875341E+02  0.68048708004E+02  0.46999998093E+01 0. -1.
        5    1    3    3  502    0  0.24037914914E+02  0.28970232842E+02  0.36640234964E+02  0.52741753486E+02  0.46999998093E+01 0.  1.
       -5    1    3    3    0  502  0.71047729197E+02  0.24546229133E+02  0.61912125303E+03  0.62368542803E+03  0.46999998093E+01 0.  1.
</event>
<event>
10   0  0.1583500E-03  0.1864636E+03  0.7818609E-02  0.1173644E+00
        2   -1    0    0  503    0  0.00000000000E+00  0.00000000000E+00  0.11257725381E+04  0.11257725381E+04  0.00000000000E+00 0.  1.
       21   -1    0    0  501  503  0.00000000000E+00  0.00000000000E+00 -0.13646294486E+03  0.13646294486E+03  0.25500000920E-02 0.  1.
       25    2    1    2    0    0 -0.60039104517E+02 -0.29119098646E+02  0.10550499571E+04  0.10645224161E+04  0.12499978624E+03 0.  0.
        6    2    1    2  501    0  0.60039104517E+02  0.29119098646E+02 -0.65740363852E+02  0.19771306680E+03  0.17411503487E+03 0.  0.
       24    2    4    4    0    0  0.40087376936E+02 -0.46197466912E+02 -0.81945021665E+01  0.10073743751E+03  0.79622093114E+02 0.  0.
      -15    1    5    5    0    0  0.37381683318E+02 -0.10370406427E+02 -0.37791584843E+02  0.54187611046E+02  0.17769999504E+01 0.  1.
       16    1    5    5    0    0  0.27056936177E+01 -0.35827060485E+02  0.29597082676E+02  0.46549826465E+02  0.00000000000E+00 0. -1.
        5    1    4    4  501    0  0.19951727581E+02  0.75316565558E+02 -0.57545861686E+02  0.96975629291E+02  0.46999998093E+01 0. -1.
        5    1    3    3  502    0 -0.46645776837E+02 -0.77884407191E+02  0.67585560355E+03  0.68194185693E+03  0.46999998093E+01 0.  1.
       -5    1    3    3    0  502 -0.13393327680E+02  0.48765308545E+02  0.37919435350E+03  0.38258055918E+03  0.46999998093E+01 0.  1.
</event>
<event>
10   0  0.1583500E-03  0.1877573E+03  0.7818609E-02  0.1171210E+00
       21   -1    0    0  501  503  0.00000000000E+00  0.00000000000E+00  0.44826144029E+02  0.44826144029E+02  0.00000000000E+00 0. -1.
        2   -1    0    0  503    0  0.00000000000E+00  0.00000000000E+00 -0.74418035794E+03  0.74418035795E+03  0.25500000920E-02 0.  1.
       25    2    1    2    0    0 -0.74587600365E+02  0.18253026640E+02 -0.47131206386E+03  0.49361516244E+03  0.12499753575E+03 0.  0.
        6    2    1    2  501    0  0.74587600365E+02 -0.18253026640E+02 -0.22804215005E+03  0.29539133953E+03  0.17133691418E+03 0.  0.
       24    2    4    4    0    0  0.22126506733E+02 -0.34608520943E+02 -0.22219485892E+03  0.23993009765E+03  0.80675674200E+02 0.  0.
      -13    1    5    5    0    0 -0.24625330141E+02 -0.65744867591E+00 -0.27866347150E+02  0.37193864962E+02  0.10565999895E+00 0.  1.
       14    1    5    5    0    0  0.46751836874E+02 -0.33951072267E+02 -0.19432851177E+03  0.20273623269E+03  0.00000000000E+00 0. -1.
        5    1    4    4  501    0  0.52461093632E+02  0.16355494303E+02 -0.58472911324E+01  0.55461241879E+02  0.46999998093E+01 0. -1.
        5    1    3    3  502    0 -0.57449135297E+02 -0.47234240065E+02 -0.30545503605E+03  0.31441428979E+03  0.46999998093E+01 0.  1.
       -5    1    3    3    0  502 -0.17138465068E+02  0.65487266705E+02 -0.16585702781E+03  0.17920087265E+03  0.46999998093E+01 0.  1.
</event>
<event>
10   0  0.1583500E-03  0.1760220E+03  0.7818609E-02  0.1184835E+00
       21   -1    0    0  501  503  0.00000000000E+00  0.00000000000E+00  0.37936198608E+02  0.37936198608E+02  0.00000000000E+00 0.  1.
        2   -1    0    0  503    0  0.00000000000E+00  0.00000000000E+00 -0.15049286362E+04  0.15049286362E+04  0.25500000920E-02 0.  1.
       25    2    1    2    0    0 -0.32402579010E+02 -0.21607879252E+02 -0.12776516959E+04  0.12843427619E+04  0.12500258510E+03 0.  0.
        6    2    1    2  501    0  0.32402579010E+02  0.21607879252E+02 -0.18934074163E+03  0.25852207290E+03  0.17165930842E+03 0.  0.
       24    2    4    4    0    0  0.40776685689E+02 -0.35740214042E+01 -0.20772558358E+03  0.22589775382E+03  0.78767794068E+02 0.  0.
      -13    1    5    5    0    0  0.10310883775E+02  0.78840749375E+01  0.24562741046E+01  0.13210503713E+02  0.10565999895E+00 0.  1.
       14    1    5    5    0    0  0.30465801915E+02 -0.11458096342E+02 -0.21018185769E+03  0.21268725011E+03  0.00000000000E+00 0. -1.
        5    1    4    4  501    0 -0.83741066797E+01  0.25181900656E+02  0.18384841959E+02  0.32624319080E+02  0.46999998093E+01 0. -1.
        5    1    3    3  502    0 -0.48531229888E+02 -0.42621989945E+02 -0.12070914218E+04  0.12088274090E+04  0.46999998093E+01 0.  1.
       -5    1    3    3    0  502  0.16128650879E+02  0.21014110693E+02 -0.70560274146E+02  0.75515352831E+02  0.46999998093E+01 0.  1.
</event>
<event>
10   0  0.1583500E-03  0.2431307E+03  0.7818609E-02  0.1123106E+00
       21   -1    0    0  501  503  0.00000000000E+00  0.00000000000E+00  0.24293241543E+02  0.24293241543E+02  0.00000000000E+00 0. -1.
        2   -1    0    0  503    0  0.00000000000E+00  0.00000000000E+00 -0.21404449004E+04  0.21404449004E+04  0.25500000920E-02 0.  1.
       25    2    1    2    0    0 -0.16738469019E+03  0.39104927830E+02 -0.10320283889E+04  0.10536864677E+04  0.12500298770E+03 0.  0.
        6    2    1    2  501    0  0.16738469019E+03 -0.39104927830E+02 -0.10841232700E+04  0.11110516743E+04  0.17194687662E+03 0.  0.
       24    2    4    4    0    0  0.16595694448E+03 -0.81117514152E+02 -0.87554042280E+03  0.89822312819E+03  0.78179265412E+02 0.  0.
      -13    1    5    5    0    0  0.13348723986E+02 -0.39781196924E+02 -0.21115288782E+03  0.21528187397E+03  0.10565999895E+00 0.  1.
       14    1    5    5    0    0  0.15260822049E+03 -0.41336317228E+02 -0.66438753498E+03  0.68294125422E+03  0.00000000000E+00 0. -1.
        5    1    4    4  501    0  0.14277457109E+01  0.42012586323E+02 -0.20858284722E+03  0.21282854607E+03  0.46999998093E+01 0. -1.
        5    1    3    3  502    0 -0.61816792245E+02  0.48703595343E+02 -0.71585561954E+03  0.72018380573E+03  0.46999998093E+01 0. -1.
       -5    1    3    3    0  502 -0.10556789794E+03 -0.95986675136E+01 -0.31617276934E+03  0.33350266200E+03  0.46999998093E+01 0. -1.
</event>
<event>
10   0  0.1583500E-03  0.2400108E+03  0.7818609E-02  0.1125325E+00
       21   -1    0    0  501  503  0.00000000000E+00  0.00000000000E+00  0.13309892141E+04  0.13309892141E+04  0.00000000000E+00 0.  1.
       -4   -1    0    0    0  501  0.00000000000E+00  0.00000000000E+00 -0.54441069524E+02  0.54455880774E+02  0.12699999809E+01 0. -1.
       25    2    1    2    0    0  0.16757162486E+03 -0.37947452564E+01  0.22625155799E+03  0.30807417354E+03  0.12500111744E+03 0.  0.
       -6    2    1    2    0  503 -0.16757162486E+03  0.37947452564E+01  0.10502965866E+04  0.10773709214E+04  0.17178629976E+03 0.  0.
      -24    2    4    4    0    0 -0.14983359080E+03  0.31649977492E+02  0.56936249590E+03  0.59528146761E+03  0.82064291411E+02 0.  0.
       13    1    5    5    0    0 -0.35244137632E+02  0.46156472055E+02  0.17845543915E+03  0.18766705645E+03  0.10565999895E+00 0. -1.
      -14    1    5    5    0    0 -0.11458945317E+03 -0.14506494564E+02  0.39090705676E+03  0.40761441116E+03  0.00000000000E+00 0.  1.
       -5    1    4    4    0  503 -0.17738034063E+02 -0.27855232235E+02  0.48093409070E+03  0.48208945375E+03  0.46999998093E+01 0.  1.
        5    1    3    3  502    0  0.10919669370E+03  0.57076976894E+02  0.11702316411E+03  0.16999473563E+03  0.46999998093E+01 0. -1.
       -5    1    3    3    0  502  0.58374931166E+02 -0.60871722150E+02  0.10922839388E+03  0.13807943791E+03  0.46999998093E+01 0. -1.
</event>
<event>
10   0  0.1583500E-03  0.2004560E+03  0.7818609E-02  0.1158593E+00
       -2   -1    0    0    0  501  0.00000000000E+00  0.00000000000E+00  0.83472113450E+03  0.83472113451E+03  0.00000000000E+00 0. -1.
       21   -1    0    0  501  503  0.00000000000E+00  0.00000000000E+00 -0.10170843287E+03  0.10170843287E+03  0.25500000920E-02 0.  1.
       25    2    1    2    0    0  0.47709512201E+02 -0.90078860244E+02  0.71746449746E+03  0.73537148142E+03  0.12500204782E+03 0.  0.
       -6    2    1    2    0  503 -0.47709512201E+02  0.90078860244E+02  0.15548204172E+02  0.20105808596E+03  0.17260419653E+03 0.  0.
      -24    2    4    4    0    0 -0.69843843950E+02  0.11198992165E+02  0.42597689506E+02  0.11465364808E+03  0.79544427230E+02 0.  0.
       13    1    5    5    0    0  0.91318319474E+01  0.23204974657E+02  0.19022541101E+02  0.31364461378E+02  0.10565999895E+00 0. -1.
      -14    1    5    5    0    0 -0.78975675897E+02 -0.12005982492E+02  0.23575148405E+02  0.83289186701E+02  0.00000000000E+00 0.  1.
       -5    1    4    4    0  503  0.22134331749E+02  0.78879868079E+02 -0.27049485334E+02  0.86404437879E+02  0.46999998093E+01 0.  1.
        5    1    3    3  502    0  0.55555256629E+02 -0.10875488362E+03  0.42649631487E+03  0.44366114079E+03  0.46999998093E+01 0.  1.
       -5    1    3    3    0  502 -0.78457444277E+01  0.18676023379E+02  0.29096818258E+03  0.29171034063E+03  0.46999998093E+01 0.  1.
</event>
<event>
10   0  0.1583500E-03  0.1890102E+03  0.7818609E-02  0.1170199E+00
        2   -1    0    0  503    0  0.00000000000E+00  0.00000000000E+00  0.84659485032E+03  0.84659485032E+03  0.00000000000E+00 0. -1.
       21   -1    0    0  501  503  0.00000000000E+00  0.00000000000E+00 -0.33374148561E+02  0.33374148561E+02  0.25500000920E-02 0. -1.
       25    2    1    2    0    0  0.22940958607E+02  0.74129467268E+02  0.35274762159E+03  0.38221373456E+03  0.12503994901E+03 0.  0.
        6    2    1    2  501    0 -0.22940958607E+02 -0.74129467268E+02  0.46047308017E+03  0.49775526433E+03  0.17234668580E+03 0.  0.
       24    2    4    4    0    0 -0.22423147219E+02 -0.91138655065E+02  0.46382642107E+03  0.47978541481E+03  0.79057216037E+02 0.  0.
      -15    1    5    5    0    0  0.24486432023E+02 -0.63406566920E+02  0.24284939660E+03  0.25218835270E+03  0.17769999504E+01 0.  1.
       16    1    5    5    0    0 -0.46909579242E+02 -0.27732088145E+02  0.22097702447E+03  0.22759706211E+03  0.00000000000E+00 0. -1.
        5    1    4    4  501    0 -0.51781138778E+00  0.17009187797E+02 -0.33533409003E+01  0.17969849513E+02  0.46999998093E+01 0. -1.
        5    1    3    3  502    0  0.42307214881E+02  0.97065264704E+01  0.27854782574E+03  0.28194875121E+03  0.46999998093E+01 0. -1.
       -5    1    3    3    0  502 -0.19366256274E+02  0.64422940798E+02  0.74199795852E+02  0.10026498335E+03  0.46999998093E+01 0. -1.
</event>
<event>
10   0  0.1583500E-03  0.1826304E+03  0.7818609E-02  0.1177090E+00
        2   -1    0    0  503    0  0.00000000000E+00  0.00000000000E+00  0.12662503263E+04  0.12662503263E+04  0.00000000000E+00 0. -1.
       21   -1    0    0  501  503  0.00000000000E+00  0.00000000000E+00 -0.21704286196E+02  0.21704286196E+02  0.25500000920E-02 0.  1.
       25    2    1    2    0    0 -0.59906983187E+02  0.15543943034E+02  0.69496298812E+03  0.70882128861E+03  0.12499441404E+03 0.  0.
        6    2    1    2  501    0  0.59906983187E+02 -0.15543943034E+02  0.54958305199E+03  0.57913332389E+03  0.17182379056E+03 0.  0.
       24    2    4    4    0    0 -0.20912586810E+02 -0.28490321381E+02  0.17276966671E+03  0.19350418996E+03  0.79658515545E+02 0.  0.
      -11    1    5    5    0    0 -0.24468285044E+02  0.20724336002E+02  0.10422815917E+03  0.10904909096E+03  0.51099999109E-03 0.  1.
       12    1    5    5    0    0  0.35556982337E+01 -0.49214657383E+02  0.68541507538E+02  0.84455098998E+02  0.00000000000E+00 0. -1.
        5    1    4    4  501    0  0.80819569997E+02  0.12946378347E+02  0.37681338528E+03  0.38562913393E+03  0.46999998093E+01 0. -1.
        5    1    3    3  502    0 -0.90047468024E+02  0.22686918653E+02  0.62854278842E+03  0.63538285281E+03  0.46999998093E+01 0.  1.
       -5    1    3    3    0  502  0.30140484838E+02 -0.71429756184E+01  0.66420199699E+02  0.73438435803E+02  0.46999998093E+01 0.  1.
</event>
<event>
10   0  0.1583500E-03  0.2487911E+03  0.7818609E-02  0.1121598E+00
       21   -1    0    0  501  503  0.00000000000E+00  0.00000000000E+00  0.37624892977E+02  0.37624892977E+02  0.00000000000E+00 0. -1.
        2   -1    0    0  503    0  0.00000000000E+00  0.00000000000E+00 -0.16994070641E+04  0.16994070641E+04  0.25500000920E-02 0.  1.
       25    2    1    2    0    0  0.15917033192E+03  0.38131177243E+02 -0.11462792528E+04  0.11646332465E+04  0.12500116902E+03 0.  0.
        6    2    1    2  501    0 -0.15917033192E+03 -0.38131177243E+02 -0.51550291828E+03  0.57239871051E+03  0.18737087234E+03 0.  0.
       24    2    4    4    0    0 -0.78944302030E+02 -0.13471474985E+02 -0.45666980578E+03  0.46979392548E+03  0.75798004211E+02 0.  0.
      -13    1    5    5    0    0 -0.40298103297E+02 -0.44954511729E+02 -0.24319162283E+03  0.25057338612E+03  0.10565999895E+00 0.  1.
       14    1    5    5    0    0 -0.38646198733E+02  0.31483036744E+02 -0.21347818295E+03  0.21922053936E+03  0.00000000000E+00 0. -1.
        5    1    4    4  501    0 -0.80226029892E+02 -0.24659702258E+02 -0.58833112491E+02  0.10260478503E+03  0.46999998093E+01 0. -1.
        5    1    3    3  502    0 -0.22642014437E+01 -0.19947084847E+02 -0.32285578200E+03  0.32351345995E+03  0.46999998093E+01 0.  1.
       -5    1    3    3    0  502  0.16143453337E+03  0.58078262090E+02 -0.82342347083E+03  0.84111978659E+03  0.46999998093E+01 0.  1.
</event>
<event>
10   0  0.1583500E-03  0.4067447E+03  0.7818609E-02  0.1043057E+00
       21   -1    0    0  501  503  0.00000000000E+00  0.00000000000E+00  0.14087020365E+03  0.14087020365E+03  0.00000000000E+00 0. -1.
        2   -1    0    0  503    0  0.00000000000E+00  0.00000000000E+00 -0.12779689062E+04  0.12779689062E+04  0.25500000920E-02 0.  1.
       25    2    1    2    0    0  0.35490046483E+03  0.96527321276E+02 -0.80467999973E+03  0.89353590975E+03  0.12499862547E+03 0.  0.
        6    2    1    2  501    0 -0.35490046483E+03 -0.96527321276E+02 -0.33241870281E+03  0.52530320010E+03  0.17369339181E+03 0.  0.
       24    2    4    4    0    0 -0.19054314776E+03 -0.77014535708E+02 -0.10737915471E+03  0.24591285545E+03  0.81883574286E+02 0.  0.
      -13    1    5    5    0    0 -0.10750865473E+03 -0.26679088847E+02 -0.98808930063E+02  0.14843550939E+03  0.10565999895E+00 0.  1.
       14    1    5    5    0    0 -0.83034493033E+02 -0.50335446861E+02 -0.85702246505E+01  0.97477346059E+02  0.00000000000E+00 0. -1.
        5    1    4    4  501    0 -0.16435731707E+03 -0.19512785568E+02 -0.22503954810E+03  0.27939034465E+03  0.46999998093E+01 0. -1.
        5    1    3    3  502    0  0.12451829271E+03  0.19954434737E+02 -0.42071494004E+03  0.43923357733E+03  0.46999998093E+01 0.  1.
       -5    1    3    3    0  502  0.23038217212E+03  0.76572886539E+02 -0.38396505969E+03  0.45430233242E+03  0.46999998093E+01 0.  1.
</event>
<event>
10   0  0.1583500E-03  0.2429086E+03  0.7818609E-02  0.1123251E+00
       21   -1    0    0  501  503  0.00000000000E+00  0.00000000000E+00  0.76822445515E+02  0.76822445515E+02  0.00000000000E+00 0.  1.
        2   -1    0    0  503    0  0.00000000000E+00  0.00000000000E+00 -0.69447738080E+03  0.69447738080E+03  0.25500000920E-02 0.  1.
       25    2    1    2    0    0 -0.88821469886E+02 -0.14689868091E+03 -0.35398233854E+03  0.41279203902E+03  0.12500118205E+03 0.  0.
        6    2    1    2  501    0  0.88821469886E+02  0.14689868091E+03 -0.26367259674E+03  0.35850778730E+03  0.17186075560E+03 0.  0.
       24    2    4    4    0    0  0.12579743869E+03  0.10910999908E+03 -0.17130696249E+03  0.25197747643E+03  0.80103593874E+02 0.  0.
      -13    1    5    5    0    0  0.28358642635E+02  0.76970154514E+02 -0.70962806360E+02  0.10846358075E+03  0.10565999895E+00 0.  1.
       14    1    5    5    0    0  0.97438796057E+02  0.32139844568E+02 -0.10034415613E+03  0.14351389569E+03  0.00000000000E+00 0. -1.
        5    1    4    4  501    0 -0.36975968805E+02  0.37788681826E+02 -0.92365634254E+02  0.10653031086E+03  0.46999998093E+01 0. -1.
        5    1    3    3  502    0 -0.36353170168E+02  0.91706091518E+01 -0.26297091771E+02  0.46035639317E+02  0.46999998093E+01 0.  1.
       -5    1    3    3    0  502 -0.52468299718E+02 -0.15606929006E+03 -0.32768524677E+03  0.36675639970E+03  0.46999998093E+01 0.  1.
</event>
<event>
10   0  0.1583500E-03  0.2853506E+03  0.7818609E-02  0.1096574E+00
       21   -1    0    0  501  503  0.00000000000E+00  0.00000000000E+00  0.29080770707E+03  0.29080770707E+03  0.00000000000E+00 0.  1.
        2   -1    0    0  503    0  0.00000000000E+00  0.00000000000E+00 -0.33164794780E+03  0.33164794781E+03  0.25500000920E-02 0.  1.
       25    2    1    2    0    0 -0.12578269435E+03  0.18807539373E+03 -0.16984490602E+03  0.30929883041E+03  0.12499933788E+03 0.  0.
        6    2    1    2  501    0  0.12578269435E+03 -0.18807539373E+03  0.12900466529E+03  0.31315682447E+03  0.17387165704E+03 0.  0.
       24    2    4    4    0    0  0.13979228344E+03 -0.17641817168E+03  0.15218656559E+03  0.28329631691E+03  0.80192260344E+02 0.  0.
      -13    1    5    5    0    0  0.11262583096E+03 -0.15104614102E+03  0.85404139998E+02  0.20686563951E+03  0.10565999895E+00 0.  1.
       14    1    5    5    0    0  0.27166452477E+02 -0.25372030667E+02  0.66782425590E+02  0.76430677401E+02  0.00000000000E+00 0. -1.
        5    1    4    4  501    0 -0.14009589086E+02 -0.11657222045E+02 -0.23181900300E+02  0.29860507563E+02  0.46999998093E+01 0. -1.
        5    1    3    3  502    0 -0.45033478214E+01  0.10651097231E+03 -0.10372248500E+03  0.14881300769E+03  0.46999998093E+01 0.  1.
       -5    1    3    3    0  502 -0.12127934653E+03  0.81564421414E+02 -0.66122421022E+02  0.16048582272E+03  0.46999998093E+01 0.  1.
</event>
<event>
10   0  0.1583500E-03  0.1995845E+03  0.7818609E-02  0.1159220E+00
        2   -1    0    0  503    0  0.00000000000E+00  0.00000000000E+00  0.57728406139E+03  0.57728406139E+03  0.00000000000E+00 0.  1.
       21   -1    0    0  501  503  0.00000000000E+00  0.00000000000E+00 -0.90435688144E+02  0.90435688144E+02  0.25500000920E-02 0.  1.
       25    2    1    2    0    0  0.34488296352E+02  0.95500142280E+02  0.43154445031E+03  0.46061475148E+03  0.12500246769E+03 0.  0.
        6    2    1    2  501    0 -0.34488296352E+02 -0.95500142280E+02  0.55303922931E+02  0.20710499805E+03  0.17182618126E+03 0.  0.
       24    2    4    4    0    0 -0.62781164735E+02 -0.94593930873E+02  0.87526168645E+02  0.16395791545E+03  0.79573120059E+02 0.  0.
      -15    1    5    5    0    0 -0.53468887360E+02 -0.70355089078E+02  0.18624724624E+02  0.90326068058E+02  0.17769999504E+01 0.  1.
       16    1    5    5    0    0 -0.93122773752E+01 -0.24238841796E+02  0.68901444021E+02  0.73631847388E+02  0.00000000000E+00 0. -1.
        5    1    4    4  501    0  0.28292868383E+02 -0.90621140649E+00 -0.32222245714E+02  0.43147082608E+02  0.46999998093E+01 0. -1.
        5    1    3    3  502    0  0.34246394811E+02  0.28273861200E+02  0.30813332164E+02  0.54256596115E+02  0.46999998093E+01 0.  1.
       -5    1    3    3    0  502  0.24190154123E+00  0.67226281079E+02  0.40073111815E+03  0.40635815537E+03  0.46999998093E+01 0.  1.
</event>
<event>
10   0  0.1583500E-03  0.2076526E+03  0.7818609E-02  0.1151404E+00
        2   -1    0    0  503    0  0.00000000000E+00  0.00000000000E+00  0.52755298814E+03  0.52755298815E+03  0.00000000000E+00 0. -1.
       21   -1    0    0  501  503  0.00000000000E+00  0.00000000000E+00 -0.15270407842E+03  0.15270407842E+03  0.25500000920E-02 0. -1.
       25    2    1    2    0    0 -0.10456630953E+03 -0.54335295768E+02  0.43198276847E+03  0.46488793536E+03  0.12500097094E+03 0.  0.
        6    2    1    2  501    0  0.10456630953E+03  0.54335295768E+02 -0.57133858745E+02  0.21536913121E+03  0.17097703767E+03 0.  0.
       24    2    4    4    0    0  0.97273239174E+02 -0.22833285861E+02 -0.56491006197E+02  0.13771166458E+03  0.76090911271E+02 0.  0.
      -11    1    5    5    0    0  0.76054859931E+02  0.10935406392E+02 -0.60265665497E+02  0.97651806282E+02  0.51099999109E-03 0.  1.
       12    1    5    5    0    0  0.21218379244E+02 -0.33768692252E+02  0.37746593002E+01  0.40059858300E+02  0.00000000000E+00 0. -1.
        5    1    4    4  501    0  0.72930703525E+01  0.77168581628E+02 -0.64285254848E+00  0.77657466629E+02  0.46999998093E+01 0. -1.
        5    1    3    3  502    0 -0.69892112428E+02 -0.74865558954E+02  0.16092297346E+03  0.19080894288E+03  0.46999998093E+01 0. -1.
       -5    1    3    3    0  502 -0.34674197099E+02  0.20530263186E+02  0.27105979501E+03  0.27407899248E+03  0.46999998093E+01 0. -1.
</event>
<event>
10   0  0.1583500E-03  0.1815769E+03  0.7818609E-02  0.1178150E+00
       21   -1    0    0  501  503  0.00000000000E+00  0.00000000000E+00  0.30939396291E+03  0.30939396291E+03  0.00000000000E+00 0. -1.
        2   -1    0    0  503    0  0.00000000000E+00  0.00000000000E+00 -0.83122198120E+02  0.83122198159E+02  0.25500000920E-02 0. -1.
       25    2    1    2    0    0 -0.50810181302E+02 -0.31489914661E+02  0.86181723608E+02  0.16317929966E+03  0.12500762018E+03 0.  0.
        6    2    1    2  501    0  0.50810181302E+02  0.31489914661E+02  0.14009004119E+03  0.22933686141E+03  0.17145520439E+03 0.  0.
       24    2    4    4    0    0  0.49481821537E+02 -0.42161201469E+02  0.54264475165E+02  0.11613629062E+03  0.79479476358E+02 0.  0.
      -13    1    5    5    0    0  0.89873840594E+01 -0.18930656474E+02 -0.19640528053E+02  0.28721147835E+02  0.10565999895E+00 0.  1.
       14    1    5    5    0    0  0.40494437478E+02 -0.23230544995E+02  0.73905003218E+02  0.87415142785E+02  0.00000000000E+00 0. -1.
        5    1    4    4  501    0  0.13283597645E+01  0.73651116130E+02  0.85825566020E+02  0.11320057079E+03  0.46999998093E+01 0. -1.
        5    1    3    3  502    0  0.35045393474E+02  0.25800960603E+01  0.55267605846E+02  0.65661516534E+02  0.46999998093E+01 0.  1.
       -5    1    3    3    0  502 -0.85855574775E+02 -0.34070010721E+02  0.30914117762E+02  0.97517783126E+02  0.46999998093E+01 0.  1.
</event>
<event>
10   0  0.1583500E-03  0.1878228E+03  0.7818609E-02  0.1171367E+00
       21   -1    0    0  501  503  0.00000000000E+00  0.00000000000E+00  0.29437874093E+02  0.29437874093E+02  0.00000000000E+00 0.  1.
        2   -1    0    0  503    0  0.00000000000E+00  0.00000000000E+00 -0.94677086974E+03  0.94677086974E+03  0.25500000920E-02 0. -1.
       25    2    1    2    0    0  0.35065985144E+01  0.75397507880E+02 -0.40944254260E+03  0.43470148413E+03  0.12500041674E+03 0.  0.
        6    2    1    2  501    0 -0.35065985144E+01 -0.75397507880E+02 -0.50789045304E+03  0.54150725971E+03  0.17198930081E+03 0.  0.
       24    2    4    4    0    0  0.63405704017E+02 -0.62604746354E+02 -0.35604563961E+03  0.37501447204E+03  0.76991682614E+02 0.  0.
      -15    1    5    5    0    0  0.49578521128E+02 -0.79829693173E+02 -0.31017726633E+03  0.32410477310E+03  0.17769999504E+01 0.  1.
       16    1    5    5    0    0  0.13827182889E+02  0.17224946819E+02 -0.45868373277E+02  0.50909698945E+02  0.00000000000E+00 0. -1.
        5    1    4    4  501    0 -0.66912302532E+02 -0.12792761526E+02 -0.15184481344E+03  0.16649278766E+03  0.46999998093E+01 0. -1.
        5    1    3    3  502    0 -0.54208017862E+02  0.33196427675E+02 -0.27572850201E+03  0.28299966225E+03  0.46999998093E+01 0. -1.
       -5    1    3    3    0  502  0.57714616376E+02  0.42201080204E+02 -0.13371404059E+03  0.15170182188E+03  0.46999998093E+01 0. -1.
</event>
<event>
10   0  0.1583500E-03  0.3107042E+03  0.7818609E-02  0.1082896E+00
       21   -1    0    0  501  503  0.00000000000E+00  0.00000000000E+00  0.46122482898E+02  0.46122482898E+02  0.00000000000E+00 0.  1.
        2   -1    0    0  503    0  0.00000000000E+00  0.00000000000E+00 -0.20133309381E+04  0.20133309381E+04  0.25500000920E-02 0.  1.
       25    2    1    2    0    0 -0.14877813858E+03 -0.21190286836E+03 -0.11435701809E+04  0.11791596540E+04  0.12500788372E+03 0.  0.
        6    2    1    2  501    0  0.14877813858E+03  0.21190286836E+03 -0.82363827434E+03  0.88029376697E+03  0.17175374544E+03 0.  0.
       24    2    4    4    0    0  0.16476986821E+03  0.22024626572E+03 -0.80485547893E+03  0.85383188688E+03  0.74692851472E+02 0.  0.
      -13    1    5    5    0    0  0.69485457265E+02  0.14093825217E+03 -0.37859543536E+03  0.40991015423E+03  0.10565999895E+00 0.  1.
       14    1    5    5    0    0  0.95284410949E+02  0.79308013545E+02 -0.42626004357E+03  0.44392173266E+03  0.00000000000E+00 0. -1.
        5    1    4    4  501    0 -0.15991729634E+02 -0.83433973619E+01 -0.18782795413E+02  0.26461880091E+02  0.46999998093E+01 0. -1.
        5    1    3    3  502    0 -0.53196867087E+02 -0.79014133740E+02 -0.20109624918E+03  0.22256444332E+03  0.46999998093E+01 0. -1.
       -5    1    3    3    0  502 -0.95581271493E+02 -0.13288873462E+03 -0.94247393167E+03  0.95659521070E+03  0.46999998093E+01 0. -1.
</event>
<event>
10   0  0.1583500E-03  0.1813858E+03  0.7818609E-02  0.1180455E+00
       21   -1    0    0  501  503  0.00000000000E+00  0.00000000000E+00  0.29810672390E+03  0.29810672390E+03  0.00000000000E+00 0. -1.
        2   -1    0    0  503    0  0.00000000000E+00  0.00000000000E+00 -0.23549789390E+03  0.23549789391E+03  0.25500000920E-02 0. -1.
       25    2    1    2    0    0 -0.40367331301E+02  0.12721746172E+02 -0.18464012884E+03  0.22695685380E+03  0.12500428811E+03 0.  0.
        6    2    1    2  501    0  0.40367331301E+02 -0.12721746172E+02  0.24724895885E+03  0.30664776401E+03  0.17637868142E+03 0.  0.
       24    2    4    4    0    0  0.65535281798E+02 -0.45418188647E+02  0.89621092612E+02  0.14364126937E+03  0.79013853241E+02 0.  0.
      -15    1    5    5    0    0  0.45617383814E+02  0.57409136159E+01  0.10259747440E+02  0.47141530963E+02  0.17769999504E+01 0.  1.
       16    1    5    5    0    0  0.19917897984E+02 -0.51159102263E+02  0.79361345172E+02  0.96499738404E+02  0.00000000000E+00 0. -1.
        5    1    4    4  501    0 -0.25167950498E+02  0.32696442475E+02  0.15762786624E+03  0.16300649464E+03  0.46999998093E+01 0. -1.
        5    1    3    3  502    0  0.13198485403E+02 -0.29687154497E+02 -0.14319452840E+03  0.14690912198E+03  0.46999998093E+01 0.  1.
       -5    1    3    3    0  502 -0.53565816703E+02  0.42408900669E+02 -0.41445600441E+02  0.80047731818E+02  0.46999998093E+01 0.  1.
</event>
<event>
10   0  0.1583500E-03  0.2286902E+03  0.7818609E-02  0.1133853E+00
        2   -1    0    0  503    0  0.00000000000E+00  0.00000000000E+00  0.79838271264E+03  0.79838271265E+03  0.00000000000E+00 0. -1.
       21   -1    0    0  501  503  0.00000000000E+00  0.00000000000E+00 -0.69506702094E+02  0.69506702094E+02  0.25500000920E-02 0. -1.
       25    2    1    2    0    0  0.11559980812E+03  0.97112177680E+02  0.52906545001E+03  0.56420626792E+03  0.12499748669E+03 0.  0.
        6    2    1    2  501    0 -0.11559980812E+03 -0.97112177680E+02  0.19981056054E+03  0.30368314682E+03  0.17177049475E+03 0.  0.
       24    2    4    4    0    0  0.28682218291E+01 -0.44711598636E+02  0.12279213253E+03  0.15290376144E+03  0.79336616400E+02 0.  0.
      -15    1    5    5    0    0  0.12538707109E+02 -0.61223313678E+02  0.57767259320E+02  0.85121837926E+02  0.17769999504E+01 0.  1.
       16    1    5    5    0    0 -0.96704852803E+01  0.16511715042E+02  0.65024873208E+02  0.67781923512E+02  0.00000000000E+00 0. -1.
        5    1    4    4  501    0 -0.11846802995E+03 -0.52400579044E+02  0.77018428009E+02  0.15077938538E+03  0.46999998093E+01 0. -1.
        5    1    3    3  502    0  0.11799216105E+03  0.45465994023E+02  0.46412787488E+03  0.48106764693E+03  0.46999998093E+01 0. -1.
       -5    1    3    3    0  502 -0.23923529311E+01  0.51646183657E+02  0.64937575128E+02  0.83138620993E+02  0.46999998093E+01 0. -1.
</event>
<event>
10   0  0.1583500E-03  0.1931984E+03  0.7818609E-02  0.1164865E+00
        2   -1    0    0  503    0  0.00000000000E+00  0.00000000000E+00  0.84293059105E+03  0.84293059105E+03  0.00000000000E+00 0. -1.
       21   -1    0    0  501  503  0.00000000000E+00  0.00000000000E+00 -0.36709852702E+02  0.36709852702E+02  0.25500000920E-02 0. -1.
       25    2    1    2    0    0 -0.92751508953E+02 -0.55388026279E+01  0.30489936191E+03  0.34238002677E+03  0.12500776412E+03 0.  0.
        6    2    1    2  501    0  0.92751508953E+02  0.55388026279E+01  0.50132137643E+03  0.53726041698E+03  0.16938746246E+03 0.  0.
       24    2    4    4    0    0  0.10133738386E+03 -0.18602386272E+02  0.49294127733E+03  0.50989565299E+03  0.79919709035E+02 0.  0.
      -13    1    5    5    0    0  0.74304558186E+02  0.65150077957E+01  0.43395046224E+03  0.44031423726E+03  0.10565999895E+00 0.  1.
       14    1    5    5    0    0  0.27032825675E+02 -0.25117394067E+02  0.58990815093E+02  0.69581415724E+02  0.00000000000E+00 0. -1.
        5    1    4    4  501    0 -0.85858749077E+01  0.24141188899E+02  0.83800990997E+01  0.27364763996E+02  0.46999998093E+01 0. -1.
        5    1    3    3  502    0 -0.43295643390E+02 -0.63837797582E+02  0.12655681029E+03  0.14828517581E+03  0.46999998093E+01 0.  1.
       -5    1    3    3    0  502 -0.49455865564E+02  0.58298994955E+02  0.17834255162E+03  0.19409485096E+03  0.46999998093E+01 0.  1.
</event>
<event>
10   0  0.1583500E-03  0.2050498E+03  0.7818609E-02  0.1153761E+00
       21   -1    0    0  501  503  0.00000000000E+00  0.00000000000E+00  0.89642443929E+03  0.89642443929E+03  0.00000000000E+00 0.  1.
        2   -1    0    0  503    0  0.00000000000E+00  0.00000000000E+00 -0.48555279477E+02  0.48555279544E+02  0.25500000920E-02 0.  1.
       25    2    1    2    0    0 -0.11301580953E+03  0.92278262319E+01  0.18178466288E+03  0.24804789545E+03  0.12499747516E+03 0.  0.
        6    2    1    2  501    0  0.11301580953E+03 -0.92278262319E+01  0.66608449693E+03  0.69693182339E+03  0.17084403243E+03 0.  0.
       24    2    4    4    0    0  0.11929569618E+03 -0.43919069087E+02  0.62449643491E+03  0.64220910225E+03  0.79223645748E+02 0.  0.
      -11    1    5    5    0    0  0.27645226641E+02  0.41595653710E+01  0.41120548245E+02  0.49723837627E+02  0.51099999109E-03 0.  1.
       12    1    5    5    0    0  0.91650469542E+02 -0.48078634458E+02  0.58337588666E+03  0.59248526463E+03  0.00000000000E+00 0. -1.
        5    1    4    4  501    0 -0.62798866576E+01  0.34691242855E+02  0.41588062020E+02  0.54722721132E+02  0.46999998093E+01 0. -1.
        5    1    3    3  502    0 -0.83411815795E+02 -0.37397887446E+02  0.16738684507E+03  0.19077887436E+03  0.46999998093E+01 0. -1.
       -5    1    3    3    0  502 -0.29603993730E+02  0.46625713678E+02  0.14397817810E+02  0.57269021090E+02  0.46999998093E+01 0. -1.
</event>
<event>
10   0  0.1583500E-03  0.2430240E+03  0.7818609E-02  0.1122931E+00
       21   -1    0    0  501  503  0.00000000000E+00  0.00000000000E+00  0.12100016423E+03  0.12100016423E+03  0.00000000000E+00 0.  1.
        2   -1    0    0  503    0  0.00000000000E+00  0.00000000000E+00 -0.28469106332E+04  0.28469106332E+04  0.25500000920E-02 0.  1.
       25    2    1    2    0    0 -0.64615362559E+02 -0.16089189818E+03 -0.27163002233E+04  0.27246968517E+04  0.12499873066E+03 0.  0.
        6    2    1    2  501    0  0.64615362559E+02  0.16089189818E+03 -0.96102456662E+01  0.24321394571E+03  0.17029186296E+03 0.  0.
       24    2    4    4    0    0  0.83704388657E+02  0.16361738474E+03 -0.42663518686E+02  0.20465972351E+03  0.79299138267E+02 0.  0.
      -11    1    5    5    0    0  0.91809407048E+02  0.10177958516E+03 -0.37349669179E+02  0.14206705799E+03  0.51099999109E-03 0.  1.
       12    1    5    5    0    0 -0.81050183909E+01  0.61837799581E+02 -0.53138495076E+01  0.62592665518E+02  0.00000000000E+00 0. -1.
        5    1    4    4  501    0 -0.19089026099E+02 -0.27254865621E+01  0.33053273020E+02  0.38554222206E+02  0.46999998093E+01 0. -1.
        5    1    3    3  502    0 -0.53751637424E+02 -0.15883355609E+02 -0.12319773884E+04  0.12332606760E+04  0.46999998093E+01 0. -1.
       -5    1    3    3    0  502 -0.10863725135E+02 -0.14500854257E+03 -0.14843228349E+04  0.14914361757E+04  0.46999998093E+01 0. -1.
</event>
<event>
10   0  0.1583500E-03  0.3544090E+03  0.7818609E-02  0.1062872E+00
        2   -1    0    0  503    0  0.00000000000E+00  0.00000000000E+00  0.18275357348E+04  0.18275357348E+04  0.00000000000E+00 0.  1.
       21   -1    0    0  501  503  0.00000000000E+00  0.00000000000E+00 -0.65397892211E+02  0.65397892211E+02  0.25500000920E-02 0. -1.
       25    2    1    2    0    0 -0.31043635695E+03  0.48169171982E+01  0.93351401271E+03  0.99169935654E+03  0.12500106970E+03 0.  0.
        6    2    1    2  501    0  0.31043635695E+03 -0.48169171982E+01  0.82862382988E+03  0.90123427048E+03  0.17091467002E+03 0.  0.
       24    2    4    4    0    0  0.71622396272E+02 -0.14045910358E+01  0.35277342591E+03  0.36878760766E+03  0.80146547112E+02 0.  0.
      -13    1    5    5    0    0 -0.12098691022E+02  0.16469237509E+02  0.94907756621E+02  0.97082993049E+02  0.10565999895E+00 0.  1.
       14    1    5    5    0    0  0.83721087294E+02 -0.17873828545E+02  0.25786566929E+03  0.27170461462E+03  0.00000000000E+00 0. -1.
        5    1    4    4  501    0  0.23881396068E+03 -0.34123261624E+01  0.47585040397E+03  0.53244666281E+03  0.46999998093E+01 0. -1.
        5    1    3    3  502    0 -0.30227372300E+03 -0.25021935647E+02  0.85149227473E+03  0.90391187889E+03  0.46999998093E+01 0. -1.
       -5    1    3    3    0  502 -0.81626339516E+01  0.29838852845E+02  0.82021737974E+02  0.87787477642E+02  0.46999998093E+01 0. -1.
</event>
<event>
10   0  0.1583500E-03  0.2321471E+03  0.7818609E-02  0.1131259E+00
       21   -1    0    0  501  503  0.00000000000E+00  0.00000000000E+00  0.33918884184E+03  0.33918884184E+03  0.00000000000E+00 0.  1.
        2   -1    0    0  503    0  0.00000000000E+00  0.00000000000E+00 -0.30131350758E+03  0.30131350759E+03  0.25500000920E-02 0.  1.
       25    2    1    2    0    0 -0.73053344338E+02  0.13746656352E+03 -0.21759817401E+03  0.29530821341E+03  0.12499651343E+03 0.  0.
        6    2    1    2  501    0  0.73053344338E+02 -0.13746656352E+03  0.25547350827E+03  0.34519413602E+03  0.17221623299E+03 0.  0.
       24    2    4    4    0    0  0.13716301522E+02 -0.53791897128E+02  0.36967106488E+02  0.10376200877E+03  0.79487624057E+02 0.  0.
      -15    1    5    5    0    0  0.11386637862E+01 -0.41381500236E+02  0.61116645050E+02  0.73838520760E+02  0.17769999504E+01 0.  1.
       16    1    5    5    0    0  0.12577637736E+02 -0.12410396892E+02 -0.24149538563E+02  0.29923488012E+02  0.00000000000E+00 0. -1.
        5    1    4    4  501    0  0.59337042817E+02 -0.83674666393E+02  0.21850640179E+03  0.24143212724E+03  0.46999998093E+01 0. -1.
        5    1    3    3  502    0 -0.38040930729E+02  0.86742813113E+02 -0.32639353851E+02  0.10029379570E+03  0.46999998093E+01 0.  1.
       -5    1    3    3    0  502 -0.35012413609E+02  0.50723750408E+02 -0.18495882016E+03  0.19501441772E+03  0.46999998093E+01 0.  1.
</event>
<event>
10   0  0.1583500E-03  0.1794368E+03  0.7818609E-02  0.1180578E+00
        2   -1    0    0  503    0  0.00000000000E+00  0.00000000000E+00  0.94052036026E+03  0.94052036026E+03  0.00000000000E+00 0.  1.
       21   -1    0    0  501  503  0.00000000000E+00  0.00000000000E+00 -0.17761325309E+03  0.17761325309E+03  0.25500000920E-02 0.  1.
       25    2    1    2    0    0  0.48406173396E+02 -0.22714034495E+02  0.88867278438E+03  0.89901130568E+03  0.12499169997E+03 0.  0.
        6    2    1    2  501    0 -0.48406173396E+02  0.22714034495E+02 -0.12576567721E+03  0.21912230766E+03  0.17128483635E+03 0.  0.
       24    2    4    4    0    0 -0.28214220635E+02  0.75769289888E+02 -0.11289478705E+03  0.16072432060E+03  0.80932359118E+02 0.  0.
      -15    1    5    5    0    0  0.15145938740E+02  0.50579554238E+02 -0.22642086252E+02  0.57476191296E+02  0.17769999504E+01 0.  1.
       16    1    5    5    0    0 -0.43360159374E+02  0.25189735651E+02 -0.90252700799E+02  0.10324812930E+03  0.00000000000E+00 0. -1.
        5    1    4    4  501    0 -0.20191952761E+02 -0.53055255393E+02 -0.12870890159E+02  0.58397987062E+02  0.46999998093E+01 0. -1.
        5    1    3    3  502    0  0.28488615728E+02  0.48247224289E+02  0.51875166455E+03  0.52178997245E+03  0.46999998093E+01 0. -1.
       -5    1    3    3    0  502  0.19917557668E+02 -0.70961258784E+02  0.36992111983E+03  0.37722133324E+03  0.46999998093E+01 0. -1.
</event>
<event>
10   0  0.1583500E-03  0.1823893E+03  0.7818609E-02  0.1177073E+00
       21   -1    0    0  501  503  0.00000000000E+00  0.00000000000E+00  0.82506182635E+02  0.82506182635E+02  0.00000000000E+00 0. -1.
       -4   -1    0    0    0  501  0.00000000000E+00  0.00000000000E+00 -0.46681311645E+03  0.46681484401E+03  0.12699999809E+01 0.  1.
       25    2    1    2    0    0 -0.48683459714E+02 -0.40355223521E+02 -0.33080993053E+03  0.35924791400E+03  0.12500092103E+03 0.  0.
       -6    2    1    2    0  503  0.48683459714E+02  0.40355223521E+02 -0.53497003282E+02  0.19007311265E+03  0.17107669472E+03 0.  0.
      -24    2    4    4    0    0  0.32407728389E+02  0.87409171344E+01  0.36549654572E+02  0.93146055603E+02  0.78826682876E+02 0.  0.
       11    1    5    5    0    0 -0.69289447604E+01  0.34925384912E+02  0.27601958218E+02  0.45051757840E+02  0.51099999109E-03 0. -1.
      -12    1    5    5    0    0  0.39336673150E+02 -0.26184467777E+02  0.89476963538E+01  0.48094297763E+02  0.00000000000E+00 0.  1.
       -5    1    4    4    0  503  0.16275731324E+02  0.31614306386E+02 -0.90046657854E+02  0.96927057044E+02  0.46999998093E+01 0.  1.
        5    1    3    3  502    0 -0.59738065000E+02 -0.22822321447E+02 -0.33183169506E+03  0.33797020374E+03  0.46999998093E+01 0. -1.
       -5    1    3    3    0  502  0.11054605286E+02 -0.17532902074E+02  0.10217645297E+01  0.21277710265E+02  0.46999998093E+01 0. -1.
</event>
<event>
10   0  0.1583500E-03  0.2082612E+03  0.7818609E-02  0.1151070E+00
       21   -1    0    0  501  503  0.00000000000E+00  0.00000000000E+00  0.65154947106E+02  0.65154947106E+02  0.00000000000E+00 0. -1.
       -4   -1    0    0    0  501  0.00000000000E+00  0.00000000000E+00 -0.67015271912E+03  0.67015392250E+03  0.12699999809E+01 0.  1.
       25    2    1    2    0    0 -0.63029329543E+02 -0.99299851512E+02 -0.43103393523E+03  0.46394904761E+03  0.12500123427E+03 0.  0.
       -6    2    1    2    0  503  0.63029329543E+02  0.99299851512E+02 -0.17396383679E+03  0.27135982199E+03  0.17187082239E+03 0.  0.
      -24    2    4    4    0    0 -0.14252653028E+02  0.90059745329E+02 -0.64082789057E+02  0.13662371310E+03  0.79028724400E+02 0.  0.
       15    1    5    5    0    0  0.19820608945E+01  0.91321910322E+02 -0.73989092651E+02  0.11756344428E+03  0.17769999504E+01 0. -1.
      -16    1    5    5    0    0 -0.16234713922E+02 -0.12621649933E+01  0.99063035939E+01  0.19060268820E+02  0.00000000000E+00 0.  1.
       -5    1    4    4    0  503  0.77281982571E+02  0.92401061828E+01 -0.10988104773E+03  0.13473610890E+03  0.46999998093E+01 0.  1.
        5    1    3    3  502    0 -0.62353484009E+02 -0.84002254647E+02 -0.43501663800E+03  0.44744374069E+03  0.46999998093E+01 0. -1.
       -5    1    3    3    0  502 -0.67584553436E+00 -0.15297596864E+02  0.39827027666E+01  0.16505306921E+02  0.46999998093E+01 0. -1.
</event>
<event>
10   0  0.1583500E-03  0.1706370E+03  0.7818609E-02  0.1190792E+00
        2   -1    0    0  503    0  0.00000000000E+00  0.00000000000E+00  0.20805307199E+04  0.20805307199E+04  0.00000000000E+00 0. -1.
       21   -1    0    0  501  503  0.00000000000E+00  0.00000000000E+00 -0.29241106101E+02  0.29241106101E+02  0.25500000920E-02 0. -1.
       25    2    1    2    0    0 -0.12909229723E+02  0.82537800590E+01  0.18092613984E+04  0.18136390403E+04  0.12499995124E+03 0.  0.
        6    2    1    2  501    0  0.12909229723E+02 -0.82537800590E+01  0.24202821545E+03  0.29613278571E+03  0.16994762900E+03 0.  0.
       24    2    4    4    0    0 -0.26750710538E+02 -0.64106542764E+02  0.15233792826E+03  0.18317757522E+03  0.74309692077E+02 0.  0.
      -13    1    5    5    0    0  0.18507173652E+02 -0.12859222874E+01  0.59315874107E+02  0.62149442136E+02  0.10565999895E+00 0.  1.
       14    1    5    5    0    0 -0.45257884190E+02 -0.62820620477E+02  0.93022054157E+02  0.12102813309E+03  0.00000000000E+00 0. -1.
        5    1    4    4  501    0  0.39659940261E+02  0.55852762705E+02  0.89690287184E+02  0.11295521049E+03  0.46999998093E+01 0. -1.
        5    1    3    3  502    0  0.21271718096E+02 -0.31790454039E+02  0.21016180280E+03  0.21366607665E+03  0.46999998093E+01 0.  1.
       -5    1    3    3    0  502 -0.34180947819E+02  0.40044234098E+02  0.15990995956E+04  0.15999729637E+04  0.46999998093E+01 0.  1.
</event>
<event>
10   0  0.1583500E-03  0.1715718E+03  0.7818609E-02  0.1189695E+00
       21   -1    0    0  501  503  0.00000000000E+00  0.00000000000E+00  0.46330472725E+03  0.46330472725E+03  0.00000000000E+00 0.  1.
        2   -1    0    0  503    0  0.00000000000E+00  0.00000000000E+00 -0.10961022658E+03  0.10961022661E+03  0.25500000920E-02 0.  1.
       25    2    1    2    0    0  0.21857549614E+02 -0.31811589751E+01 -0.48324977859E+02  0.13581480164E+03  0.12498993804E+03 0.  0.
        6    2    1    2  501    0 -0.21857549614E+02  0.31811589751E+01  0.40201947853E+03  0.43710015222E+03  0.17014408513E+03 0.  0.
       24    2    4    4    0    0 -0.59093226217E+02 -0.30975345340E+02  0.17000946859E+03  0.19960510572E+03  0.80545002434E+02 0.  0.
      -11    1    5    5    0    0  0.24166728605E+01 -0.18862542508E+02  0.11388408720E+03  0.11546090739E+03  0.51099999109E-03 0.  1.
       12    1    5    5    0    0 -0.61509899078E+02 -0.12112802831E+02  0.56125381386E+02  0.84144198331E+02  0.00000000000E+00 0. -1.
        5    1    4    4  501    0  0.37235676603E+02  0.34156504315E+02  0.23201000995E+03  0.23749504650E+03  0.46999998093E+01 0. -1.
        5    1    3    3  502    0  0.33861061920E+01 -0.28762406900E+02 -0.83395234133E+02  0.88405864286E+02  0.46999998093E+01 0. -1.
       -5    1    3    3    0  502  0.18471443422E+02  0.25581247925E+02  0.35070256274E+02  0.47408937352E+02  0.46999998093E+01 0. -1.
</event>
<event>
10   0  0.1583500E-03  0.1735579E+03  0.7818609E-02  0.1187202E+00
        2   -1    0    0  503    0  0.00000000000E+00  0.00000000000E+00  0.16741163683E+04  0.16741163683E+04  0.00000000000E+00 0. -1.
       21   -1    0    0  501  503  0.00000000000E+00  0.00000000000E+00 -0.32685246116E+02  0.32685246116E+02  0.25500000920E-02 0. -1.
       25    2    1    2    0    0 -0.26489716374E+02  0.21683997562E+02  0.14178686937E+04  0.14237777358E+04  0.12497802802E+03 0.  0.
        6    2    1    2  501    0  0.26489716374E+02 -0.21683997562E+02  0.22356242844E+03  0.28302387860E+03  0.17014833418E+03 0.  0.
       24    2    4    4    0    0  0.82704875076E+01 -0.64969989986E+02  0.75339263971E+02  0.12746741321E+03  0.79261820398E+02 0.  0.
      -13    1    5    5    0    0 -0.12544012422E+02 -0.67204169854E+02  0.80791566238E+02  0.10583497075E+03  0.10565999895E+00 0.  1.
       14    1    5    5    0    0  0.20814499930E+02  0.22341798688E+01 -0.54523022676E+01  0.21632442466E+02  0.00000000000E+00 0. -1.
        5    1    4    4  501    0  0.18219228866E+02  0.43285992423E+02  0.14822316447E+03  0.15555646539E+03  0.46999998093E+01 0. -1.
        5    1    3    3  502    0 -0.19746323920E+02 -0.49717724704E+02  0.43866853208E+03  0.44194336797E+03  0.46999998093E+01 0. -1.
       -5    1    3    3    0  502 -0.67433924541E+01  0.71401722267E+02  0.97920016163E+03  0.98183436781E+03  0.46999998093E+01 0. -1.
</event>
<event>
10   0  0.1583500E-03  0.1749006E+03  0.7818609E-02  0.1186335E+00
       -2   -1    0    0    0  501  0.00000000000E+00  0.00000000000E+00  0.14115977136E+03  0.14115977138E+03  0.00000000000E+00 0.  1.
       21   -1    0    0  501  503  0.00000000000E+00  0.00000000000E+00 -0.31111810987E+03  0.31111810987E+03  0.25500000920E-02 0.  1.
       25    2    1    2    0    0  0.64501445240E+01  0.31498951591E+02  0.76512933236E+02  0.15005557997E+03  0.12501463840E+03 0.  0.
       -6    2    1    2    0  503 -0.64501445240E+01 -0.31498951591E+02 -0.24647127175E+03  0.30222230128E+03  0.17191987458E+03 0.  0.
      -24    2    4    4    0    0 -0.52281209035E+02 -0.44494557193E+02 -0.89442018833E+02  0.13805882023E+03  0.79669772647E+02 0.  0.
       15    1    5    5    0    0 -0.43319638427E+02 -0.42912974513E+02 -0.10418691408E+03  0.12073187338E+03  0.17769999504E+01 0. -1.
      -16    1    5    5    0    0 -0.89615706076E+01 -0.15815826801E+01  0.14744895247E+02  0.17326946856E+02  0.00000000000E+00 0.  1.
       -5    1    4    4    0  503  0.45831064511E+02  0.12995605602E+02 -0.15702925292E+03  0.16416348105E+03  0.46999998093E+01 0.  1.
        5    1    3    3  502    0 -0.18070915156E+02  0.96433011890E+01 -0.31048635070E+02  0.37492118776E+02  0.46999998093E+01 0.  1.
       -5    1    3    3    0  502  0.24521059680E+02  0.21855650402E+02  0.10756156831E+03  0.11256346120E+03  0.46999998093E+01 0.  1.
</event>
<event>
10   0  0.1583500E-03  0.2112684E+03  0.7818609E-02  0.1148635E+00
       21   -1    0    0  501  503  0.00000000000E+00  0.00000000000E+00  0.52064272139E+02  0.52064272139E+02  0.00000000000E+00 0.  1.
        2   -1    0    0  503    0  0.00000000000E+00  0.00000000000E+00 -0.73881272246E+03  0.73881272247E+03  0.25500000920E-02 0.  1.
       25    2    1    2    0    0  0.27951104486E+02 -0.11802350419E+03 -0.38449747424E+03  0.42210880535E+03  0.12500689609E+03 0.  0.
        6    2    1    2  501    0 -0.27951104486E+02  0.11802350419E+03 -0.30225097609E+03  0.36876818926E+03  0.17298414113E+03 0.  0.
       24    2    4    4    0    0 -0.59104893806E+02  0.12367170579E+03 -0.29639985030E+03  0.33622919048E+03  0.80056967143E+02 0.  0.
      -13    1    5    5    0    0 -0.33475210642E+02  0.77666318753E+02 -0.25671637865E+03  0.27028865502E+03  0.10565999895E+00 0.  1.
       14    1    5    5    0    0 -0.25629683164E+02  0.46005387041E+02 -0.39683471647E+02  0.65940535468E+02  0.00000000000E+00 0. -1.
        5    1    4    4  501    0  0.31153789319E+02 -0.56482016014E+01 -0.58511257839E+01  0.32538998777E+02  0.46999998093E+01 0. -1.
        5    1    3    3  502    0  0.75142021339E+02 -0.84983660384E+02 -0.28873407573E+03  0.31025473790E+03  0.46999998093E+01 0.  1.
       -5    1    3    3    0  502 -0.47190916852E+02 -0.33039843808E+02 -0.95763398504E+02  0.11185406744E+03  0.46999998093E+01 0.  1.
</event>
<event>
10   0  0.1583500E-03  0.1767556E+03  0.7818609E-02  0.1185995E+00
       21   -1    0    0  501  503  0.00000000000E+00  0.00000000000E+00  0.42228545854E+02  0.42228545854E+02  0.00000000000E+00 0.  1.
        2   -1    0    0  503    0  0.00000000000E+00  0.00000000000E+00 -0.64517145832E+03  0.64517145832E+03  0.25500000920E-02 0.  1.
       25    2    1    2    0    0  0.63840051219E+01 -0.14605979001E+02 -0.39432698672E+03  0.41397151271E+03  0.12499820291E+03 0.  0.
        6    2    1    2  501    0 -0.63840051219E+01  0.14605979001E+02 -0.20861592574E+03  0.27342849147E+03  0.17603535250E+03 0.  0.
       24    2    4    4    0    0 -0.37652647756E+02 -0.49758825016E+02 -0.90610864728E+02  0.13534214011E+03  0.78825779626E+02 0.  0.
      -15    1    5    5    0    0 -0.20903264349E+02  0.19870408840E+02 -0.27387624558E+02  0.39812301060E+02  0.17769999504E+01 0.  1.
       16    1    5    5    0    0 -0.16749383408E+02 -0.69629233857E+02 -0.63223240169E+02  0.95529839053E+02  0.00000000000E+00 0. -1.
        5    1    4    4  501    0  0.31268642634E+02  0.64364804017E+02 -0.11800506101E+03  0.13808635135E+03  0.46999998093E+01 0. -1.
        5    1    3    3  502    0  0.13233717105E+02  0.43417078117E+02 -0.29602046695E+03  0.29951691236E+03  0.46999998093E+01 0.  1.
       -5    1    3    3    0  502 -0.68497119830E+01 -0.58023057118E+02 -0.98306519779E+02  0.11445460035E+03  0.46999998093E+01 0.  1.
</event>
<event>
10   0  0.1583500E-03  0.1989777E+03  0.7818609E-02  0.1160153E+00
       -4   -1    0    0    0  501  0.00000000000E+00  0.00000000000E+00  0.75883505091E+03  0.75883611366E+03  0.00000000000E+00 0. -1.
       21   -1    0    0  501  503  0.00000000000E+00  0.00000000000E+00 -0.54045552874E+02  0.54045552874E+02  0.12699999809E+01 0. -1.
       25    2    1    2    0    0 -0.71105749902E+01 -0.98058078084E+02  0.51082495789E+03  0.53500690343E+03  0.12499720864E+03 0.  0.
       -6    2    1    2    0  503  0.71105749902E+01  0.98058078084E+02  0.19396454015E+03  0.27787476310E+03  0.17299189049E+03 0.  0.
      -24    2    4    4    0    0 -0.39230706637E+02  0.39346681803E+02  0.38548194866E+02  0.10533238333E+03  0.80757277929E+02 0.  0.
       13    1    5    5    0    0 -0.36674185961E+02  0.38405017519E+02  0.62051240411E+02  0.81671959001E+02  0.10565999895E+00 0. -1.
      -14    1    5    5    0    0 -0.25565206764E+01  0.94166428436E+00 -0.23503045544E+02  0.23660424330E+02  0.00000000000E+00 0.  1.
       -5    1    4    4    0  503  0.46341281628E+02  0.58711396281E+02  0.15541634528E+03  0.17254237977E+03  0.46999998093E+01 0.  1.
        5    1    3    3  502    0 -0.46834143050E+02  0.16168758114E+01  0.21997673276E+03  0.22496200612E+03  0.46999998093E+01 0.  1.
       -5    1    3    3    0  502  0.39723568060E+02 -0.99674953896E+02  0.29084822513E+03  0.31004489731E+03  0.46999998093E+01 0.  1.
</event>
<event>
10   0  0.1583500E-03  0.2024701E+03  0.7818609E-02  0.1155145E+00
       21   -1    0    0  501  503  0.00000000000E+00  0.00000000000E+00  0.33498853517E+02  0.33498853517E+02  0.00000000000E+00 0.  1.
       -2   -1    0    0    0  501  0.00000000000E+00  0.00000000000E+00 -0.10749931714E+04  0.10749931714E+04  0.25500000920E-02 0.  1.
       25    2    1    2    0    0  0.10529364980E+03  0.45620592149E+02 -0.58497181474E+03  0.60908542363E+03  0.12500015248E+03 0.  0.
       -6    2    1    2    0  503 -0.10529364980E+03 -0.45620592149E+02 -0.45652250318E+03  0.49940660133E+03  0.16681176944E+03 0.  0.
      -24    2    4    4    0    0 -0.30266556170E+02  0.12797809659E+02 -0.10873869730E+03  0.13882728956E+03  0.79806413779E+02 0.  0.
       13    1    5    5    0    0 -0.15559506346E+02  0.45150775092E+02 -0.43804123897E+02  0.64803573694E+02  0.10565999895E+00 0. -1.
      -14    1    5    5    0    0 -0.14707049824E+02 -0.32352965433E+02 -0.64934573404E+02  0.74023715862E+02  0.00000000000E+00 0.  1.
       -5    1    4    4    0  503 -0.75027093633E+02 -0.58418401809E+02 -0.34778380588E+03  0.36057931177E+03  0.46999998093E+01 0.  1.
        5    1    3    3  502    0 -0.17347505368E+02  0.30863438320E+00 -0.23119857122E+03  0.23189631418E+03  0.46999998093E+01 0. -1.
       -5    1    3    3    0  502  0.12264115517E+03  0.45311957766E+02 -0.35377324352E+03  0.37718910945E+03  0.46999998093E+01 0. -1.
</event>
<event>
10   0  0.1583500E-03  0.1949328E+03  0.7818609E-02  0.1164466E+00
       21   -1    0    0  501  503  0.00000000000E+00  0.00000000000E+00  0.41100381991E+02  0.41100381991E+02  0.00000000000E+00 0.  1.
        2   -1    0    0  503    0  0.00000000000E+00  0.00000000000E+00 -0.78824523177E+03  0.78824523177E+03  0.25500000920E-02 0. -1.
       25    2    1    2    0    0 -0.15077614093E+02 -0.87010268515E+02 -0.43704250204E+03  0.46306392749E+03  0.12499572427E+03 0.  0.
        6    2    1    2  501    0  0.15077614093E+02  0.87010268515E+02 -0.31010234774E+03  0.36628168627E+03  0.17378344670E+03 0.  0.
       24    2    4    4    0    0 -0.55005832004E+02  0.53963298049E+02 -0.16291537146E+03  0.19987889885E+03  0.86443489398E+02 0.  0.
      -11    1    5    5    0    0 -0.40919050189E+02  0.52032688448E+02 -0.42581728675E+02  0.78708150484E+02  0.51099999109E-03 0.  1.
       12    1    5    5    0    0 -0.14086781816E+02  0.19306096013E+01 -0.12033364278E+03  0.12117074837E+03  0.00000000000E+00 0. -1.
        5    1    4    4  501    0  0.70083446097E+02  0.33046970467E+02 -0.14718697628E+03  0.16640278742E+03  0.46999998093E+01 0. -1.
        5    1    3    3  502    0 -0.26664464129E+01 -0.99570414441E+02 -0.18333109059E+03  0.20869536685E+03  0.46999998093E+01 0.  1.
       -5    1    3    3    0  502 -0.12411167680E+02  0.12560145925E+02 -0.25371141145E+03  0.25436856065E+03  0.46999998093E+01 0.  1.
</event>
<event>
10   0  0.1583500E-03  0.1794688E+03  0.7818609E-02  0.1180906E+00
        2   -1    0    0  503    0  0.00000000000E+00  0.00000000000E+00  0.82809201625E+03  0.82809201626E+03  0.00000000000E+00 0.  1.
       21   -1    0    0  501  503  0.00000000000E+00  0.00000000000E+00 -0.53095091545E+02  0.53095091545E+02  0.25500000920E-02 0. -1.
       25    2    1    2    0    0 -0.13085103106E+02  0.48953149272E+02  0.64660060629E+03  0.66051843571E+03  0.12499851644E+03 0.  0.
        6    2    1    2  501    0  0.13085103106E+02 -0.48953149272E+02  0.12839631842E+03  0.22066867209E+03  0.17216683046E+03 0.  0.
       24    2    4    4    0    0  0.23803012447E+02  0.22716881548E+02  0.11964224070E+03  0.14752367381E+03  0.79789275380E+02 0.  0.
      -15    1    5    5    0    0 -0.15000740802E+02  0.37715081642E+02  0.81583056647E+02  0.91139467129E+02  0.17769999504E+01 0.  1.
       16    1    5    5    0    0  0.38803753249E+02 -0.14998200094E+02  0.38059184055E+02  0.56384206682E+02  0.00000000000E+00 0. -1.
        5    1    4    4  501    0 -0.10717909341E+02 -0.71670030820E+02  0.87540777152E+01  0.73144998279E+02  0.46999998093E+01 0. -1.
        5    1    3    3  502    0 -0.56555690176E+02  0.10869759953E+02  0.15341263222E+03  0.16393359477E+03  0.46999998093E+01 0.  1.
       -5    1    3    3    0  502  0.43470587070E+02  0.38083389319E+02  0.49318797407E+03  0.49658484094E+03  0.46999998093E+01 0.  1.
</event>
<event>
10   0  0.1583500E-03  0.1824801E+03  0.7818609E-02  0.1180187E+00
        2   -1    0    0  503    0  0.00000000000E+00  0.00000000000E+00  0.28664364244E+03  0.28664364245E+03  0.00000000000E+00 0. -1.
       21   -1    0    0  501  503  0.00000000000E+00  0.00000000000E+00 -0.16673639466E+03  0.16673639466E+03  0.25500000920E-02 0. -1.
       25    2    1    2    0    0  0.83233015811E+01  0.36200920116E+02  0.21206536548E+03  0.24894886474E+03  0.12499613617E+03 0.  0.
        6    2    1    2  501    0 -0.83233015811E+01 -0.36200920116E+02 -0.92158117697E+02  0.20443117236E+03  0.17865945709E+03 0.  0.
       24    2    4    4    0    0 -0.52341290470E+02  0.21510433063E+02 -0.87602834274E+02  0.13155439803E+03  0.80187241191E+02 0.  0.
      -15    1    5    5    0    0 -0.60222293602E+02 -0.53248367944E+01 -0.29987086792E+02  0.67508974490E+02  0.17769999504E+01 0.  1.
       16    1    5    5    0    0  0.78810031320E+01  0.26835269857E+02 -0.57615747481E+02  0.64045423541E+02  0.00000000000E+00 0. -1.
        5    1    4    4  501    0  0.44017988889E+02 -0.57711353178E+02 -0.45552834233E+01  0.72876774330E+02  0.46999998093E+01 0. -1.
        5    1    3    3  502    0  0.88658628882E+01 -0.36450141549E+02  0.14539399775E+03  0.15022889510E+03  0.46999998093E+01 0.  1.
       -5    1    3    3    0  502 -0.54256130716E+00  0.72651061664E+02  0.66671367726E+02  0.98719969644E+02  0.46999998093E+01 0.  1.
</event>
<event>
10   0  0.1583500E-03  0.2890860E+03  0.7818609E-02  0.1094344E+00
        2   -1    0    0  503    0  0.00000000000E+00  0.00000000000E+00  0.48214026365E+02  0.48214026433E+02  0.00000000000E+00 0. -1.
       21   -1    0    0  501  503  0.00000000000E+00  0.00000000000E+00 -0.18623416345E+04  0.18623416345E+04  0.25500000920E-02 0. -1.
       25    2    1    2    0    0  0.96031562517E+01 -0.23181904650E+03 -0.50212441359E+03  0.56708138786E+03  0.12498032966E+03 0.  0.
        6    2    1    2  501    0 -0.96031562517E+01  0.23181904650E+03 -0.13120031945E+04  0.13434742731E+04  0.17244839514E+03 0.  0.
       24    2    4    4    0    0  0.46660260433E+02  0.10836372738E+03 -0.48897799294E+03  0.50932838634E+03  0.79975310192E+02 0.  0.
      -13    1    5    5    0    0  0.21898411229E+02  0.52385605083E+02 -0.95390772779E+02  0.11100992176E+03  0.10565999895E+00 0.  1.
       14    1    5    5    0    0  0.24761849203E+02  0.55978122292E+02 -0.39358722016E+03  0.39831846458E+03  0.00000000000E+00 0. -1.
        5    1    4    4  501    0 -0.56263416684E+02  0.12345531912E+03 -0.82302520160E+03  0.83414588673E+03  0.46999998093E+01 0. -1.
        5    1    3    3  502    0 -0.26279567140E+01 -0.62304668462E+02 -0.38918509916E+02  0.73658117549E+02  0.46999998093E+01 0.  1.
       -5    1    3    3    0  502  0.12231112966E+02 -0.16951437804E+03 -0.46320590367E+03  0.49342327031E+03  0.46999998093E+01 0.  1.
</event>
<event>
10   0  0.1583500E-03  0.1777974E+03  0.7818609E-02  0.1183586E+00
       21   -1    0    0  501  503  0.00000000000E+00  0.00000000000E+00  0.21111104953E+02  0.21111104953E+02  0.00000000000E+00 0. -1.
        2   -1    0    0  503    0  0.00000000000E+00  0.00000000000E+00 -0.12670816824E+04  0.12670816824E+04  0.25500000920E-02 0. -1.
       25    2    1    2    0    0  0.19200759645E+02 -0.32779475541E+02 -0.75053996363E+03  0.76182465969E+03  0.12499364750E+03 0.  0.
        6    2    1    2  501    0 -0.19200759645E+02  0.32779475541E+02 -0.49543061385E+03  0.52636812770E+03  0.17369153558E+03 0.  0.
       24    2    4    4    0    0 -0.96867271121E+01  0.26045840766E+02 -0.96141531684E+02  0.12688130716E+03  0.77996496639E+02 0.  0.
      -13    1    5    5    0    0  0.26990906761E+02  0.39742479833E+01 -0.73618117067E+02  0.78510776453E+02  0.10565999895E+00 0.  1.
       14    1    5    5    0    0 -0.36677633873E+02  0.22071592783E+02 -0.22523414617E+02  0.48370530704E+02  0.00000000000E+00 0. -1.
        5    1    4    4  501    0 -0.95140325327E+01  0.67336347742E+01 -0.39928908217E+03  0.39948682054E+03  0.46999998093E+01 0. -1.
        5    1    3    3  502    0 -0.37197677715E+02 -0.57579798160E+02 -0.37760272552E+03  0.38380334639E+03  0.46999998093E+01 0. -1.
       -5    1    3    3    0  502  0.56398437360E+02  0.24800322620E+02 -0.37293723811E+03  0.37802131330E+03  0.46999998093E+01 0. -1.
</event>
<event>
10   0  0.1583500E-03  0.2616148E+03  0.7818609E-02  0.1110696E+00
       21   -1    0    0  501  503  0.00000000000E+00  0.00000000000E+00  0.58867530915E+03  0.58867530915E+03  0.00000000000E+00 0.  1.
       -2   -1    0    0    0  501  0.00000000000E+00  0.00000000000E+00 -0.17920374283E+03  0.17920374284E+03  0.25500000920E-02 0. -1.
       25    2    1    2    0    0  0.19656266378E+03  0.83569786039E+01 -0.50700578356E+02  0.23853915212E+03  0.12499463416E+03 0.  0.
       -6    2    1    2    0  503 -0.19656266378E+03 -0.83569786039E+01  0.46017214468E+03  0.52933989987E+03  0.17244015475E+03 0.  0.
      -24    2    4    4    0    0 -0.17804200889E+03 -0.61770460163E+02  0.34673270382E+03  0.40250689387E+03  0.79206597177E+02 0.  0.
       13    1    5    5    0    0  0.26180809473E+01 -0.13765020175E+02  0.94924757811E+01  0.16924786225E+02  0.10565999895E+00 0. -1.
      -14    1    5    5    0    0 -0.18066008984E+03 -0.48005439988E+02  0.33724022804E+03  0.38558210765E+03  0.00000000000E+00 0.  1.
       -5    1    4    4    0  503 -0.18520654884E+02  0.53413481559E+02  0.11343944086E+03  0.12683300600E+03  0.46999998093E+01 0.  1.
        5    1    3    3  502    0  0.72025808372E+02  0.61930855078E+02 -0.37548368284E+02  0.10225027062E+03  0.46999998093E+01 0. -1.
       -5    1    3    3    0  502  0.12453685540E+03 -0.53573876474E+02 -0.13152210072E+02  0.13628888151E+03  0.46999998093E+01 0. -1.
</event>
<event>
10   0  0.1583500E-03  0.2908077E+03  0.7818609E-02  0.1093380E+00
       21   -1    0    0  501  503  0.00000000000E+00  0.00000000000E+00  0.95410293461E+02  0.95410293461E+02  0.00000000000E+00 0. -1.
        2   -1    0    0  503    0  0.00000000000E+00  0.00000000000E+00 -0.10312755850E+04  0.10312755850E+04  0.25500000920E-02 0.  1.
       25    2    1    2    0    0  0.80376298188E+02  0.22003791971E+03 -0.71136357968E+03  0.75930308338E+03  0.12500397798E+03 0.  0.
        6    2    1    2  501    0 -0.80376298188E+02 -0.22003791971E+03 -0.22450171189E+03  0.36738279512E+03  0.17231385344E+03 0.  0.
       24    2    4    4    0    0 -0.26751918386E+02 -0.17035606754E+03 -0.81745303330E+02  0.20692924194E+03  0.80003510357E+02 0.  0.
      -11    1    5    5    0    0  0.23155709954E+02 -0.10537093637E+03 -0.51956590810E+02  0.11974434627E+03  0.51099999109E-03 0.  1.
       12    1    5    5    0    0 -0.49907628340E+02 -0.64985131171E+02 -0.29788712520E+02  0.87184895672E+02  0.00000000000E+00 0. -1.
        5    1    4    4  501    0 -0.53624379802E+02 -0.49681852167E+02 -0.14275640856E+03  0.16045355318E+03  0.46999998093E+01 0. -1.
        5    1    3    3  502    0  0.34044292301E+02  0.16464040215E+03 -0.32208455535E+03  0.36335385873E+03  0.46999998093E+01 0.  1.
       -5    1    3    3    0  502  0.46332005887E+02  0.55397517561E+02 -0.38927902433E+03  0.39594922465E+03  0.46999998093E+01 0.  1.
</event>
<event>
10   0  0.1583500E-03  0.1900979E+03  0.7818609E-02  0.1168345E+00
       21   -1    0    0  501  503  0.00000000000E+00  0.00000000000E+00  0.60588231361E+02  0.60588231361E+02  0.00000000000E+00 0.  1.
        2   -1    0    0  503    0  0.00000000000E+00  0.00000000000E+00 -0.14975944451E+04  0.14975944451E+04  0.25500000920E-02 0.  1.
       25    2    1    2    0    0  0.84564187791E+02 -0.13125919578E+00 -0.13329538002E+04  0.13414706497E+04  0.12500620611E+03 0.  0.
        6    2    1    2  501    0 -0.84564187791E+02  0.13125919578E+00 -0.10405241362E+03  0.21671202680E+03  0.17025298439E+03 0.  0.
       24    2    4    4    0    0 -0.22616751453E+02  0.50335955021E+02 -0.94000296964E+02  0.13620655246E+03  0.81675842747E+02 0.  0.
      -13    1    5    5    0    0 -0.53062645867E+02  0.34962946407E+02 -0.69755868289E+02  0.94360713926E+02  0.10565999895E+00 0.  1.
       14    1    5    5    0    0  0.30445894413E+02  0.15373008614E+02 -0.24244428675E+02  0.41845838530E+02  0.00000000000E+00 0. -1.
        5    1    4    4  501    0 -0.61947436337E+02 -0.50204695826E+02 -0.10052116651E+02  0.80505474342E+02  0.46999998093E+01 0. -1.
        5    1    3    3  502    0 -0.47938008895E+01  0.42226307768E+02 -0.64678831220E+03  0.64820000956E+03  0.46999998093E+01 0.  1.
       -5    1    3    3    0  502  0.89357988680E+02 -0.42357566963E+02 -0.68616548795E+03  0.69327064014E+03  0.46999998093E+01 0.  1.
</event>
<event>
10   0  0.1583500E-03  0.1969397E+03  0.7818609E-02  0.1162679E+00
        2   -1    0    0  503    0  0.00000000000E+00  0.00000000000E+00  0.15122186933E+04  0.15122186933E+04  0.00000000000E+00 0.  1.
       21   -1    0    0  501  503  0.00000000000E+00  0.00000000000E+00 -0.24546175091E+02  0.24546175091E+02  0.25500000920E-02 0.  1.
       25    2    1    2    0    0  0.52954739382E+02 -0.74010125181E+02  0.98180386758E+03  0.99391282402E+03  0.12506863837E+03 0.  0.
        6    2    1    2  501    0 -0.52954739382E+02  0.74010125181E+02  0.50586865060E+03  0.54285204435E+03  0.17465264767E+03 0.  0.
       24    2    4    4    0    0 -0.97306316037E+02  0.75533478529E+02  0.43547113989E+03  0.45950168460E+03  0.79579262086E+02 0.  0.
      -11    1    5    5    0    0 -0.89198653534E+02  0.37164217950E+02  0.21705809992E+03  0.23759587039E+03  0.51099999109E-03 0.  1.
       12    1    5    5    0    0 -0.81076625026E+01  0.38369260580E+02  0.21841303997E+03  0.22190581421E+03  0.00000000000E+00 0. -1.
        5    1    4    4  501    0  0.44351576655E+02 -0.15233533481E+01  0.70397510715E+02  0.83350359749E+02  0.46999998093E+01 0. -1.
        5    1    3    3  502    0  0.40357902729E+02 -0.10919443013E+03  0.77464255690E+03  0.78335519711E+03  0.46999998093E+01 0.  1.
       -5    1    3    3    0  502  0.12596836653E+02  0.35184304945E+02  0.20716131068E+03  0.21055762691E+03  0.46999998093E+01 0.  1.
</event>
<event>
10   0  0.1583500E-03  0.1769364E+03  0.7818609E-02  0.1183994E+00
        2   -1    0    0  503    0  0.00000000000E+00  0.00000000000E+00  0.40006758282E+03  0.40006758282E+03  0.00000000000E+00 0. -1.
       21   -1    0    0  501  503  0.00000000000E+00  0.00000000000E+00 -0.16252407064E+03  0.16252407064E+03  0.25500000920E-02 0. -1.
       25    2    1    2    0    0  0.35777658064E+02  0.18686370019E+02  0.33553740687E+03  0.36033116792E+03  0.12499591162E+03 0.  0.
        6    2    1    2  501    0 -0.35777658064E+02 -0.18686370019E+02 -0.97993894691E+02  0.20226048554E+03  0.17227094756E+03 0.  0.
       24    2    4    4    0    0  0.20041290143E+02  0.38274467073E+02 -0.31251661864E+02  0.98160016850E+02  0.82414406497E+02 0.  0.
      -13    1    5    5    0    0 -0.23795094583E+01  0.10554161176E+02  0.27435598921E+02  0.29491958829E+02  0.10565999895E+00 0.  1.
       14    1    5    5    0    0  0.22420799601E+02  0.27720305897E+02 -0.58687260785E+02  0.68668058020E+02  0.00000000000E+00 0. -1.
        5    1    4    4  501    0 -0.55818948207E+02 -0.56960837092E+02 -0.66742232827E+02  0.10410046869E+03  0.46999998093E+01 0. -1.
        5    1    3    3  502    0 -0.16863465728E+01 -0.41900949125E+02  0.47310773482E+02  0.63395051763E+02  0.46999998093E+01 0. -1.
       -5    1    3    3    0  502  0.37464004637E+02  0.60587319144E+02  0.28822663339E+03  0.29693611615E+03  0.46999998093E+01 0. -1.
</event>
<event>
10   0  0.1583500E-03  0.1795648E+03  0.7818609E-02  0.1180220E+00
        2   -1    0    0  503    0  0.00000000000E+00  0.00000000000E+00  0.76313302175E+02  0.76313302217E+02  0.00000000000E+00 0.  1.
       21   -1    0    0  501  503  0.00000000000E+00  0.00000000000E+00 -0.40530030621E+03  0.40530030621E+03  0.25500000920E-02 0.  1.
       25    2    1    2    0    0 -0.42838988974E+02  0.35321484944E+02 -0.41957602548E+02  0.14304397377E+03  0.12497340416E+03 0.  0.
        6    2    1    2  501    0  0.42838988974E+02 -0.35321484944E+02 -0.28702940148E+03  0.33856963465E+03  0.17076514256E+03 0.  0.
       24    2    4    4    0    0  0.48261816780E+01 -0.19720288037E+02 -0.29028410011E+03  0.29708404770E+03  0.59848899982E+02 0.  0.
      -11    1    5    5    0    0 -0.25919531942E+02 -0.14767760294E+02 -0.10317593742E+03  0.10740196899E+03  0.51099999109E-03 0.  1.
       12    1    5    5    0    0  0.30745713620E+02 -0.49525277427E+01 -0.18710816269E+03  0.18968207870E+03  0.00000000000E+00 0. -1.
        5    1    4    4  501    0  0.38012807296E+02 -0.15601196907E+02  0.32546986259E+01  0.41485586953E+02  0.46999998093E+01 0. -1.
        5    1    3    3  502    0 -0.59381141680E+02  0.62722536759E+00  0.25867133614E+02  0.64943914253E+02  0.46999998093E+01 0.  1.
       -5    1    3    3    0  502  0.16542152706E+02  0.34694259576E+02 -0.67824736162E+02  0.78100059522E+02  0.46999998093E+01 0.  1.
</event>
<event>
10   0  0.1583500E-03  0.2539647E+03  0.7818609E-02  0.1115437E+00
       21   -1    0    0  501  503  0.00000000000E+00  0.00000000000E+00  0.56554817931E+02  0.56554817931E+02  0.00000000000E+00 0.  1.
       -4   -1    0    0    0  501  0.00000000000E+00  0.00000000000E+00 -0.14472619811E+04  0.14472625384E+04  0.12699999809E+01 0. -1.
       25    2    1    2    0    0 -0.18822112470E+03  0.29166915317E+01 -0.10757339848E+04  0.10992111333E+04  0.12500324300E+03 0.  0.
       -6    2    1    2    0  503  0.18822112470E+03 -0.29166915317E+01 -0.31497317842E+03  0.40460622295E+03  0.17047695931E+03 0.  0.
      -24    2    4    4    0    0  0.50134850781E+02  0.32011476831E+02 -0.20154601299E+03  0.22246449834E+03  0.73016571788E+02 0.  0.
       13    1    5    5    0    0  0.44464716764E+02 -0.36937863227E+01 -0.16551287784E+03  0.17142134928E+03  0.10565999895E+00 0. -1.
      -14    1    5    5    0    0  0.56701340164E+01  0.35705263154E+02 -0.36033135150E+02  0.51043149054E+02  0.00000000000E+00 0.  1.
       -5    1    4    4    0  503  0.13808627392E+03 -0.34928168363E+02 -0.11342716542E+03  0.18214172461E+03  0.46999998093E+01 0.  1.
        5    1    3    3  502    0 -0.52920448610E+02  0.54806195167E+02 -0.48350798455E+03  0.48949602045E+03  0.46999998093E+01 0.  1.
       -5    1    3    3    0  502 -0.13530067609E+03 -0.51889503635E+02 -0.59222600023E+03  0.60971511289E+03  0.46999998093E+01 0.  1.
</event>
<event>
10   0  0.1583500E-03  0.7840782E+03  0.7818609E-02  0.9587065E-01
        2   -1    0    0  503    0  0.00000000000E+00  0.00000000000E+00  0.31810779339E+04  0.31810779339E+04  0.00000000000E+00 0. -1.
       21   -1    0    0  501  503  0.00000000000E+00  0.00000000000E+00 -0.24894618242E+03  0.24894618242E+03  0.25500000920E-02 0.  1.
       25    2    1    2    0    0  0.62728520934E+03  0.43610360930E+03  0.22875929593E+04  0.24150320216E+04  0.12500010351E+03 0.  0.
        6    2    1    2  501    0 -0.62728520934E+03 -0.43610360930E+03  0.64453879224E+03  0.10149920948E+04  0.17636781429E+03 0.  0.
       24    2    4    4    0    0 -0.48035256099E+03 -0.40382182908E+03  0.54201162427E+03  0.83287886999E+03  0.78102232603E+02 0.  0.
      -11    1    5    5    0    0 -0.13398693112E+03 -0.72220758470E+02  0.14722660877E+03  0.21176404321E+03  0.51099999109E-03 0.  1.
       12    1    5    5    0    0 -0.34636562987E+03 -0.33160107061E+03  0.39478501550E+03  0.62111482678E+03  0.00000000000E+00 0. -1.
        5    1    4    4  501    0 -0.14693264834E+03 -0.32281780228E+02  0.10252716798E+03  0.18211322482E+03  0.46999998093E+01 0. -1.
        5    1    3    3  502    0  0.95747857277E+01  0.33653153648E+02  0.76266152211E+02  0.84040628528E+02  0.46999998093E+01 0.  1.
       -5    1    3    3    0  502  0.61771042361E+03  0.40245045566E+03  0.22113268071E+04  0.23309913930E+04  0.46999998093E+01 0.  1.
</event>
<event>
10   0  0.1583500E-03  0.1599483E+03  0.7818609E-02  0.1197438E+00
        2   -1    0    0  503    0  0.00000000000E+00  0.00000000000E+00  0.16321036414E+03  0.16321036416E+03  0.00000000000E+00 0. -1.
       21   -1    0    0  501  503  0.00000000000E+00  0.00000000000E+00 -0.18578516636E+03  0.18578516636E+03  0.25500000920E-02 0. -1.
       25    2    1    2    0    0  0.38361880105E+02  0.19191920733E+02  0.84180433768E+02  0.15669328399E+03  0.12500590447E+03 0.  0.
        6    2    1    2  501    0 -0.38361880105E+02 -0.19191920733E+02 -0.10675523599E+03  0.19230224653E+03  0.15408929211E+03 0.  0.
       24    2    4    4    0    0 -0.82031901555E+01  0.25801163693E+02 -0.75633691978E+01  0.79187081053E+02  0.74029702656E+02 0.  0.
      -11    1    5    5    0    0  0.29001973689E+02  0.44904283925E+01 -0.18812712644E+02  0.34859669853E+02  0.51099999109E-03 0.  1.
       12    1    5    5    0    0 -0.37205163844E+02  0.21310735301E+02  0.11249343446E+02  0.44327411200E+02  0.00000000000E+00 0. -1.
        5    1    4    4  501    0 -0.30158689950E+02 -0.44993084426E+02 -0.99191866787E+02  0.11311516548E+03  0.46999998093E+01 0. -1.
        5    1    3    3  502    0 -0.48782603630E+01  0.27390817066E+02  0.10431808541E+03  0.10806667954E+03  0.46999998093E+01 0.  1.
       -5    1    3    3    0  502  0.43240140468E+02 -0.81988963332E+01 -0.20137651645E+02  0.48626604455E+02  0.46999998093E+01 0.  1.
</event>
<event>
10   0  0.1583500E-03  0.2450435E+03  0.7818609E-02  0.1121797E+00
        2   -1    0    0  503    0  0.00000000000E+00  0.00000000000E+00  0.30604400953E+03  0.30604400954E+03  0.00000000000E+00 0.  1.
       21   -1    0    0  501  503  0.00000000000E+00  0.00000000000E+00 -0.18650524732E+03  0.18650524732E+03  0.25500000920E-02 0. -1.
       25    2    1    2    0    0  0.12645145429E+03  0.11985410055E+03  0.12346294719E+03  0.24747434813E+03  0.12508188496E+03 0.  0.
        6    2    1    2  501    0 -0.12645145429E+03 -0.11985410055E+03 -0.39241849861E+01  0.24507490872E+03  0.17231174060E+03 0.  0.
       24    2    4    4    0    0 -0.43518227172E+02 -0.13024447932E+03  0.20576366367E+02  0.15784964205E+03  0.75071047372E+02 0.  0.
      -11    1    5    5    0    0  0.19839508255E+02 -0.17792375270E+02 -0.23668068219E+01  0.26753999334E+02  0.51099999109E-03 0.  1.
       12    1    5    5    0    0 -0.63357735427E+02 -0.11245210405E+03  0.22943173189E+02  0.13109564272E+03  0.00000000000E+00 0. -1.
        5    1    4    4  501    0 -0.82933227118E+02  0.10390378771E+02 -0.24500551353E+02  0.87225266672E+02  0.46999998093E+01 0. -1.
        5    1    3    3  502    0  0.19208614320E+02  0.29963229948E+02 -0.24734923978E+02  0.43596702575E+02  0.46999998093E+01 0. -1.
       -5    1    3    3    0  502  0.10724283997E+03  0.89890870601E+02  0.14819787117E+03  0.20387764556E+03  0.46999998093E+01 0. -1.
</event>
<event>
10   0  0.1583500E-03  0.2619233E+03  0.7818609E-02  0.1110668E+00
        2   -1    0    0  503    0  0.00000000000E+00  0.00000000000E+00  0.11378574661E+04  0.11378574661E+04  0.00000000000E+00 0.  1.
       21   -1    0    0  501  503  0.00000000000E+00  0.00000000000E+00 -0.60386714041E+02  0.60386714041E+02  0.25500000920E-02 0.  1.
       25    2    1    2    0    0 -0.83540818342E+02  0.17726012065E+03  0.70928001706E+03  0.74639438016E+03  0.12500483763E+03 0.  0.
        6    2    1    2  501    0  0.83540818342E+02 -0.17726012065E+03  0.36819073501E+03  0.45184980000E+03  0.17379184592E+03 0.  0.
       24    2    4    4    0    0  0.12308384235E+03 -0.16337117819E+03  0.31586658377E+03  0.38464518504E+03  0.79626914567E+02 0.  0.
      -15    1    5    5    0    0  0.44957888151E+02 -0.38754431994E+02  0.15843315961E+03  0.16919616278E+03  0.17769999504E+01 0.  1.
       16    1    5    5    0    0  0.78125954197E+02 -0.12461674619E+03  0.15743342416E+03  0.21544902226E+03  0.00000000000E+00 0. -1.
        5    1    4    4  501    0 -0.39543024006E+02 -0.13888942460E+02  0.52324151242E+02  0.67204614958E+02  0.46999998093E+01 0. -1.
        5    1    3    3  502    0  0.23069608626E+02  0.94442534428E+02  0.30222268749E+03  0.31750943605E+03  0.46999998093E+01 0.  1.
       -5    1    3    3    0  502 -0.10661042697E+03  0.82817586219E+02  0.40705732957E+03  0.42888494411E+03  0.46999998093E+01 0.  1.
</event>
<event>
10   0  0.1583500E-03  0.1957731E+03  0.7818609E-02  0.1163097E+00
        2   -1    0    0  503    0  0.00000000000E+00  0.00000000000E+00  0.11713798485E+04  0.11713798485E+04  0.00000000000E+00 0.  1.
       21   -1    0    0  501  503  0.00000000000E+00  0.00000000000E+00 -0.26525395810E+02  0.26525395810E+02  0.25500000920E-02 0. -1.
       25    2    1    2    0    0  0.35023510682E+02  0.86401134357E+02  0.54865759577E+03  0.57038807406E+03  0.12500238120E+03 0.  0.
        6    2    1    2  501    0 -0.35023510682E+02 -0.86401134357E+02  0.59619685689E+03  0.62751717023E+03  0.17214907624E+03 0.  0.
       24    2    4    4    0    0 -0.31944610345E+02 -0.55826349341E+01  0.14142852750E+03  0.16558921817E+03  0.79788074559E+02 0.  0.
      -15    1    5    5    0    0  0.13630173704E+02  0.16445038779E+02  0.93341328877E+02  0.95770466956E+02  0.17769999504E+01 0.  1.
       16    1    5    5    0    0 -0.45574784049E+02 -0.22027673713E+02  0.48087198624E+02  0.69818751219E+02  0.00000000000E+00 0. -1.
        5    1    4    4  501    0 -0.30789003366E+01 -0.80818499423E+02  0.45476832939E+03  0.46192795205E+03  0.46999998093E+01 0. -1.
        5    1    3    3  502    0  0.32085546082E+02  0.10420333846E+03  0.53790630956E+03  0.54886528938E+03  0.46999998093E+01 0. -1.
       -5    1    3    3    0  502  0.29379645998E+01 -0.17802204107E+02  0.10751286211E+02  0.21522784682E+02  0.46999998093E+01 0. -1.
</event>
<event>
10   0  0.1583500E-03  0.3932937E+03  0.7818609E-02  0.1047762E+00
        2   -1    0    0  503    0  0.00000000000E+00  0.00000000000E+00  0.24064809199E+04  0.24064809199E+04  0.00000000000E+00 0.  1.
       21   -1    0    0  501  503  0.00000000000E+00  0.00000000000E+00 -0.81103170773E+02  0.81103170773E+02  0.25500000920E-02 0. -1.
       25    2    1    2    0    0  0.35343040279E+03 -0.16892571270E+02  0.17555416757E+04  0.17952018917E+04  0.12499939248E+03 0.  0.
        6    2    1    2  501    0 -0.35343040279E+03  0.16892571270E+02  0.56983607345E+03  0.69238219903E+03  0.17170192298E+03 0.  0.
       24    2    4    4    0    0 -0.32201789775E+03  0.22539735213E+02  0.40418410173E+03  0.52361815765E+03  0.81287273248E+02 0.  0.
      -11    1    5    5    0    0 -0.28687336721E+02  0.24130364993E+02  0.66342279517E+02  0.76200628965E+02  0.51099999109E-03 0.  1.
       12    1    5    5    0    0 -0.29333056103E+03 -0.15906297800E+01  0.33784182222E+03  0.44741752868E+03  0.00000000000E+00 0. -1.
        5    1    4    4  501    0 -0.31412505046E+02 -0.56471639431E+01  0.16565197171E+03  0.16876404138E+03  0.46999998093E+01 0. -1.
        5    1    3    3  502    0  0.15675669339E+03  0.12867317288E+01  0.10811648447E+04  0.10924805847E+04  0.46999998093E+01 0. -1.
       -5    1    3    3    0  502  0.19667370940E+03 -0.18179302999E+02  0.67437683106E+03  0.70272130699E+03  0.46999998093E+01 0. -1.
</event>
<event>
10   0  0.1583500E-03  0.3238536E+03  0.7818609E-02  0.1076715E+00
        2   -1    0    0  503    0  0.00000000000E+00  0.00000000000E+00  0.58603881930E+03  0.58603881931E+03  0.00000000000E+00 0.  1.
       21   -1    0    0  501  503  0.00000000000E+00  0.00000000000E+00 -0.19508725491E+03  0.19508725491E+03  0.25500000920E-02 0. -1.
       25    2    1    2    0    0  0.16396205369E+03 -0.21780695144E+03  0.33985773049E+03  0.45326680088E+03  0.12499637059E+03 0.  0.
        6    2    1    2  501    0 -0.16396205369E+03  0.21780695144E+03  0.51093833903E+02  0.32785927333E+03  0.17480760882E+03 0.  0.
       24    2    4    4    0    0 -0.22676881742E+02  0.36780089260E+02  0.32864958688E+02  0.97453964080E+02  0.80933019676E+02 0.  0.
      -15    1    5    5    0    0 -0.11516388086E+02 -0.38650553181E+01 -0.23830631028E+02  0.26807136199E+02  0.17769999504E+01 0.  1.
       16    1    5    5    0    0 -0.11160493656E+02  0.40645144578E+02  0.56695589716E+02  0.70646827881E+02  0.00000000000E+00 0. -1.
        5    1    4    4  501    0 -0.14128517195E+03  0.18102686218E+03  0.18228875214E+02  0.23040530925E+03  0.46999998093E+01 0. -1.
        5    1    3    3  502    0  0.52920032084E+02 -0.17143514781E+03  0.20482839270E+03  0.27233674037E+03  0.46999998093E+01 0.  1.
       -5    1    3    3    0  502  0.11104202161E+03 -0.46371803628E+02  0.13502933779E+03  0.18093006051E+03  0.46999998093E+01 0.  1.
</event>
<event>
10   0  0.1583500E-03  0.1999441E+03  0.7818609E-02  0.1159022E+00
        2   -1    0    0  503    0  0.00000000000E+00  0.00000000000E+00  0.19586151575E+04  0.19586151575E+04  0.00000000000E+00 0. -1.
       21   -1    0    0  501  503  0.00000000000E+00  0.00000000000E+00 -0.32200355134E+02  0.32200355134E+02  0.25500000920E-02 0. -1.
       25    2    1    2    0    0  0.80989036261E+02 -0.60853737931E+02  0.15997088951E+04  0.16077823651E+04  0.12503272785E+03 0.  0.
        6    2    1    2  501    0 -0.80989036261E+02  0.60853737931E+02  0.32670590730E+03  0.38303314758E+03  0.17238109195E+03 0.  0.
       24    2    4    4    0    0 -0.91444459981E+02 -0.12048040833E+00  0.28081101437E+03  0.30586059817E+03  0.79585023346E+02 0.  0.
      -15    1    5    5    0    0 -0.51832717511E+01  0.24415275136E+02  0.11140039178E+03  0.11417607886E+03  0.17769999504E+01 0.  1.
       16    1    5    5    0    0 -0.86261188230E+02 -0.24535755544E+02  0.16941062259E+03  0.19168451931E+03  0.00000000000E+00 0. -1.
        5    1    4    4  501    0  0.10455423720E+02  0.60974218339E+02  0.45894892926E+02  0.77172549408E+02  0.46999998093E+01 0. -1.
        5    1    3    3  502    0  0.16578204022E+02 -0.61486546942E+02  0.31266332572E+03  0.31911734135E+03  0.46999998093E+01 0.  1.
       -5    1    3    3    0  502  0.64410832239E+02  0.63280901154E+00  0.12870455694E+04  0.12886650238E+04  0.46999998093E+01 0.  1.
</event>
<event>
10   0  0.1583500E-03  0.1962943E+03  0.7818609E-02  0.1162569E+00
       21   -1    0    0  501  503  0.00000000000E+00  0.00000000000E+00  0.44174882632E+03  0.44174882632E+03  0.00000000000E+00 0.  1.
        2   -1    0    0  503    0  0.00000000000E+00  0.00000000000E+00 -0.17477943327E+03  0.17477943329E+03  0.25500000920E-02 0.  1.
       25    2    1    2    0    0  0.84565269329E+02 -0.41805396050E+02 -0.11009336383E+03  0.19143089836E+03  0.12500505659E+03 0.  0.
        6    2    1    2  501    0 -0.84565269329E+02  0.41805396050E+02  0.37706275688E+03  0.42509736125E+03  0.17214083768E+03 0.  0.
       24    2    4    4    0    0  0.65958833558E+01  0.38773653197E+02  0.10453714183E+03  0.13767459235E+03  0.80494580545E+02 0.  0.
      -13    1    5    5    0    0 -0.20742399752E+02  0.44639409422E+02  0.96906886041E+02  0.10869167285E+03  0.10565999895E+00 0.  1.
       14    1    5    5    0    0  0.27338283107E+02 -0.58657562245E+01  0.76302557924E+01  0.28982919501E+02  0.00000000000E+00 0. -1.
        5    1    4    4  501    0 -0.91161152685E+02  0.30317428523E+01  0.27252561505E+03  0.28742276890E+03  0.46999998093E+01 0. -1.
        5    1    3    3  502    0 -0.11053677333E+00  0.28483878070E+02  0.79846438671E+01  0.29953097739E+02  0.46999998093E+01 0. -1.
       -5    1    3    3    0  502  0.84675806102E+02 -0.70289274119E+02 -0.11807800769E+03  0.16147780062E+03  0.46999998093E+01 0. -1.
</event>
<event>
10   0  0.1583500E-03  0.2138622E+03  0.7818609E-02  0.1145984E+00
        2   -1    0    0  503    0  0.00000000000E+00  0.00000000000E+00  0.17837847675E+04  0.17837847675E+04  0.00000000000E+00 0.  1.
       21   -1    0    0  501  503  0.00000000000E+00  0.00000000000E+00 -0.27109622420E+02  0.27109622420E+02  0.25500000920E-02 0.  1.
       25    2    1    2    0    0 -0.11507661247E+02  0.12740238564E+03  0.12222475636E+04  0.12352644215E+04  0.12500116053E+03 0.  0.
        6    2    1    2  501    0  0.11507661247E+02 -0.12740238564E+03  0.53442758146E+03  0.57562996841E+03  0.17138619132E+03 0.  0.
       24    2    4    4    0    0  0.15544285833E+02 -0.12963927172E+03  0.54331654301E+03  0.56456644126E+03  0.80588058016E+02 0.  0.
      -13    1    5    5    0    0 -0.26171687121E+02 -0.93360308325E+02  0.31108149541E+03  0.32584169826E+03  0.10565999895E+00 0.  1.
       14    1    5    5    0    0  0.41715972954E+02 -0.36278963392E+02  0.23223504760E+03  0.23872474300E+03  0.00000000000E+00 0. -1.
        5    1    4    4  501    0 -0.40366245859E+01  0.22368860739E+01 -0.88889615525E+01  0.11063527152E+02  0.46999998093E+01 0. -1.
        5    1    3    3  502    0 -0.26913428323E+02  0.81589138862E+02  0.30982707881E+03  0.32155252909E+03  0.46999998093E+01 0.  1.
       -5    1    3    3    0  502  0.15405767076E+02  0.45813246781E+02  0.91242048481E+03  0.91371189242E+03  0.46999998093E+01 0.  1.
</event>
<event>
10   0  0.1583500E-03  0.1844212E+03  0.7818609E-02  0.1174942E+00
       21   -1    0    0  501  503  0.00000000000E+00  0.00000000000E+00  0.45227139678E+02  0.45227139678E+02  0.00000000000E+00 0. -1.
        2   -1    0    0  503    0  0.00000000000E+00  0.00000000000E+00 -0.10521933834E+04  0.10521933834E+04  0.25500000920E-02 0.  1.
       25    2    1    2    0    0 -0.57926166783E+02  0.35226799902E+02 -0.82908631220E+03  0.84119316145E+03  0.12500181422E+03 0.  0.
        6    2    1    2  501    0  0.57926166783E+02 -0.35226799902E+02 -0.17787993150E+03  0.25622736162E+03  0.17150750007E+03 0.  0.
       24    2    4    4    0    0  0.97418247228E+02 -0.22099056582E+02 -0.17168521823E+03  0.21389030299E+03  0.79338290634E+02 0.  0.
      -11    1    5    5    0    0  0.21041972011E+02  0.24127825040E+02 -0.19599348194E+02  0.37537327784E+02  0.51099999109E-03 0.  1.
       12    1    5    5    0    0  0.76376275217E+02 -0.46226881622E+02 -0.15208587003E+03  0.17635297520E+03  0.00000000000E+00 0. -1.
        5    1    4    4  501    0 -0.39492080444E+02 -0.13127743320E+02 -0.61947132794E+01  0.42337058629E+02  0.46999998093E+01 0. -1.
        5    1    3    3  502    0  0.14593448613E+02  0.17466651907E+02 -0.26997502614E+02  0.35623135977E+02  0.46999998093E+01 0.  1.
       -5    1    3    3    0  502 -0.72519615396E+02  0.17760147995E+02 -0.80208880959E+03  0.80557002547E+03  0.46999998093E+01 0.  1.
</event>
<event>
10   0  0.1583500E-03  0.1894430E+03  0.7818609E-02  0.1173895E+00
        2   -1    0    0  503    0  0.00000000000E+00  0.00000000000E+00  0.30776932805E+04  0.30776932805E+04  0.00000000000E+00 0. -1.
       21   -1    0    0  501  503  0.00000000000E+00  0.00000000000E+00 -0.11620811632E+02  0.11620811632E+02  0.25500000920E-02 0. -1.
       25    2    1    2    0    0  0.44337241888E+02 -0.21417613027E+02  0.21317623646E+04  0.21359914694E+04  0.12499709269E+03 0.  0.
        6    2    1    2  501    0 -0.44337241888E+02  0.21417613027E+02  0.93431010431E+03  0.95332262275E+03  0.18293208264E+03 0.  0.
       24    2    4    4    0    0  0.28983169665E+02 -0.37236285807E+02  0.36184692086E+03  0.37319130226E+03  0.78179209807E+02 0.  0.
      -11    1    5    5    0    0 -0.10091218807E+02 -0.42853377385E+02  0.26459670278E+03  0.26823433743E+03  0.51099999109E-03 0.  1.
       12    1    5    5    0    0  0.39074388472E+02  0.56170915778E+01  0.97250218073E+02  0.10495696484E+03  0.00000000000E+00 0. -1.
        5    1    4    4  501    0 -0.73320411554E+02  0.58653898834E+02  0.57246318346E+03  0.58013132049E+03  0.46999998093E+01 0. -1.
        5    1    3    3  502    0  0.22539442471E+02  0.30952041569E+02  0.17065991782E+04  0.17070351199E+04  0.46999998093E+01 0. -1.
       -5    1    3    3    0  502  0.21797799417E+02 -0.52369654596E+02  0.42516318634E+03  0.42895634952E+03  0.46999998093E+01 0. -1.
</event>
<event>
10   0  0.1583500E-03  0.1786399E+03  0.7818609E-02  0.1179354E+00
       21   -1    0    0  501  503  0.00000000000E+00  0.00000000000E+00  0.13378257496E+03  0.13378257496E+03  0.00000000000E+00 0.  1.
        2   -1    0    0  503    0  0.00000000000E+00  0.00000000000E+00 -0.46506073242E+03  0.46506073243E+03  0.25500000920E-02 0.  1.
       25    2    1    2    0    0 -0.42846972688E+02  0.50935271170E+02 -0.38668985357E+03  0.41180671677E+03  0.12500185680E+03 0.  0.
        6    2    1    2  501    0  0.42846972688E+02 -0.50935271170E+02  0.55411696107E+02  0.18703659062E+03  0.16577685378E+03 0.  0.
       24    2    4    4    0    0  0.91630263732E+02 -0.42804144995E+02  0.40423969545E+02  0.13514587234E+03  0.80012557995E+02 0.  0.
      -13    1    5    5    0    0  0.55117286679E+02 -0.10481040160E+01  0.54918976181E+02  0.77814644648E+02  0.10565999895E+00 0.  1.
       14    1    5    5    0    0  0.36512977053E+02 -0.41756040979E+02 -0.14495006636E+02  0.57331227694E+02  0.00000000000E+00 0. -1.
        5    1    4    4  501    0 -0.48783291044E+02 -0.81311261751E+01  0.14987726563E+02  0.51890718280E+02  0.46999998093E+01 0. -1.
        5    1    3    3  502    0 -0.70316999024E+02 -0.12187534485E+02 -0.22233125169E+03  0.23355147575E+03  0.46999998093E+01 0. -1.
       -5    1    3    3    0  502  0.27470026336E+02  0.63122805656E+02 -0.16435860188E+03  0.17825524102E+03  0.46999998093E+01 0. -1.
</event>
<event>
10   0  0.1583500E-03  0.3177132E+03  0.7818609E-02  0.1080497E+00
       -2   -1    0    0    0  501  0.00000000000E+00  0.00000000000E+00  0.91487774992E+02  0.91487775028E+02  0.00000000000E+00 0. -1.
       21   -1    0    0  501  503  0.00000000000E+00  0.00000000000E+00 -0.10133637343E+04  0.10133637343E+04  0.25500000920E-02 0.  1.
       25    2    1    2    0    0  0.23303997478E+03 -0.11097320477E+03 -0.37105395646E+03  0.46896901209E+03  0.12501285402E+03 0.  0.
       -6    2    1    2    0  503 -0.23303997478E+03  0.11097320477E+03 -0.55082200286E+03  0.63588249725E+03  0.18525385139E+03 0.  0.
      -24    2    4    4    0    0 -0.16924457900E+03 -0.31578794992E+01 -0.33779560098E+03  0.38588630765E+03  0.78413485233E+02 0.  0.
       13    1    5    5    0    0 -0.36141792444E+02 -0.34222858735E+02 -0.95852735278E+02  0.10800551488E+03  0.10565999895E+00 0. -1.
      -14    1    5    5    0    0 -0.13310278656E+03  0.31064979236E+02 -0.24194286570E+03  0.27788079277E+03  0.00000000000E+00 0.  1.
       -5    1    4    4    0  503 -0.63795395775E+02  0.11413108427E+03 -0.21302640188E+03  0.24999618960E+03  0.46999998093E+01 0.  1.
        5    1    3    3  502    0  0.13572790020E+03 -0.10384089140E+03 -0.30929222093E+03  0.35339604065E+03  0.46999998093E+01 0. -1.
       -5    1    3    3    0  502  0.97312074584E+02 -0.71323133727E+01 -0.61761735529E+02  0.11557297144E+03  0.46999998093E+01 0. -1.
</event>
<event>
10   0  0.1583500E-03  0.2410601E+03  0.7818609E-02  0.1124613E+00
        2   -1    0    0  503    0  0.00000000000E+00  0.00000000000E+00  0.92915949500E+03  0.92915949501E+03  0.00000000000E+00 0.  1.
       21   -1    0    0  501  503  0.00000000000E+00  0.00000000000E+00 -0.83028868511E+02  0.83028868511E+02  0.25500000920E-02 0. -1.
       25    2    1    2    0    0  0.28905759247E+02 -0.16631731091E+03  0.69876190880E+03  0.72965071074E+03  0.12499985469E+03 0.  0.
        6    2    1    2  501    0 -0.28905759247E+02  0.16631731091E+03  0.14736871770E+03  0.28253765278E+03  0.17208426847E+03 0.  0.
       24    2    4    4    0    0 -0.78844433082E+02  0.99416642831E+02  0.61832784696E+02  0.16292136473E+03  0.81363163181E+02 0.  0.
      -11    1    5    5    0    0 -0.53842145223E+02  0.65023508520E+02  0.80347140250E+02  0.11654482489E+03  0.51099999109E-03 0.  1.
       12    1    5    5    0    0 -0.25002287859E+02  0.34393134311E+02 -0.18514355554E+02  0.46376539840E+02  0.00000000000E+00 0. -1.
        5    1    4    4  501    0  0.49938673835E+02  0.66900668078E+02  0.85535933000E+02  0.11961628805E+03  0.46999998093E+01 0. -1.
        5    1    3    3  502    0  0.65384019197E+02 -0.15515848132E+03  0.61200890264E+03  0.63476468963E+03  0.46999998093E+01 0. -1.
       -5    1    3    3    0  502 -0.36478259950E+02 -0.11158829588E+02  0.86753006161E+02  0.94886021114E+02  0.46999998093E+01 0. -1.
</event>
<event>
10   0  0.1583500E-03  0.1762243E+03  0.7818609E-02  0.1184631E+00
       21   -1    0    0  501  503  0.00000000000E+00  0.00000000000E+00  0.78285348467E+02  0.78285348467E+02  0.00000000000E+00 0.  1.
       -2   -1    0    0    0  501  0.00000000000E+00  0.00000000000E+00 -0.35727334214E+03  0.35727334215E+03  0.25500000920E-02 0.  1.
       25    2    1    2    0    0 -0.33216257539E+02 -0.21257749943E+02 -0.20740115161E+03  0.24534909929E+03  0.12500292452E+03 0.  0.
       -6    2    1    2    0  503  0.33216257539E+02  0.21257749943E+02 -0.71586842067E+02  0.19020959132E+03  0.17175506099E+03 0.  0.
      -24    2    4    4    0    0  0.13938296754E+02 -0.50254799512E+02 -0.65797663875E+02  0.11576975599E+03  0.79708737545E+02 0.  0.
       15    1    5    5    0    0  0.26875731050E+02  0.68835045603E+01 -0.46338376464E+02  0.54037860956E+02  0.17769999504E+01 0. -1.
      -16    1    5    5    0    0 -0.12937434296E+02 -0.57138304072E+02 -0.19459287411E+02  0.61731895038E+02  0.00000000000E+00 0.  1.
       -5    1    4    4    0  503  0.19277960785E+02  0.71512549454E+02 -0.57891781920E+01  0.74439835329E+02  0.46999998093E+01 0.  1.
        5    1    3    3  502    0 -0.29347530051E+02  0.17667343121E+02 -0.34478725711E+00  0.34577758885E+02  0.46999998093E+01 0. -1.
       -5    1    3    3    0  502 -0.38687274878E+01 -0.38925093064E+02 -0.20705636435E+03  0.21077134041E+03  0.46999998093E+01 0. -1.
</event>
<event>
10   0  0.1583500E-03  0.4170099E+03  0.7818609E-02  0.1039511E+00
        2   -1    0    0  503    0  0.00000000000E+00  0.00000000000E+00  0.29277672281E+04  0.29277672281E+04  0.00000000000E+00 0.  1.
       21   -1    0    0  501  503  0.00000000000E+00  0.00000000000E+00 -0.10250881301E+03  0.10250881301E+03  0.25500000920E-02 0. -1.
       25    2    1    2    0    0  0.17084683448E+03 -0.33885065035E+03  0.24059802550E+04  0.24389289131E+04  0.12499940721E+03 0.  0.
        6    2    1    2  501    0 -0.17084683448E+03  0.33885065035E+03  0.41927816008E+03  0.59134712797E+03  0.17288390944E+03 0.  0.
       24    2    4    4    0    0 -0.96980595802E+02  0.15087177708E+03  0.29394878582E+03  0.35360394707E+03  0.80388641107E+02 0.  0.
      -15    1    5    5    0    0 -0.49816492202E+02  0.14002929333E+02  0.77491510574E+02  0.93197944532E+02  0.17769999504E+01 0.  1.
       16    1    5    5    0    0 -0.47164103600E+02  0.13686884775E+03  0.21645727525E+03  0.26040600254E+03  0.00000000000E+00 0. -1.
        5    1    4    4  501    0 -0.73866238675E+02  0.18797887327E+03  0.12532937426E+03  0.23774318090E+03  0.46999998093E+01 0. -1.
        5    1    3    3  502    0  0.88593977645E+02 -0.17526889203E+03  0.16212224940E+04  0.16330806907E+04  0.46999998093E+01 0.  1.
       -5    1    3    3    0  502  0.82252856832E+02 -0.16358175832E+03  0.78475776104E+03  0.80584822245E+03  0.46999998093E+01 0.  1.
</event>
<event>
10   0  0.1583500E-03  0.2146176E+03  0.7818609E-02  0.1145856E+00
        4   -1    0    0  503    0  0.00000000000E+00  0.00000000000E+00  0.10730727546E+03  0.10731479053E+03  0.00000000000E+00 0.  1.
       21   -1    0    0  501  503  0.00000000000E+00  0.00000000000E+00 -0.36287312725E+03  0.36287312725E+03  0.12699999809E+01 0. -1.
       25    2    1    2    0    0 -0.12397952336E+03  0.22731103160E+02 -0.89359144776E+02  0.19873743387E+03  0.12499554233E+03 0.  0.
        6    2    1    2  501    0  0.12397952336E+03 -0.22731103160E+02 -0.16620670701E+03  0.27145048392E+03  0.17370397376E+03 0.  0.
       24    2    4    4    0    0  0.10323641129E+03 -0.76156589720E+02 -0.89537686724E+02  0.17561318438E+03  0.79783522175E+02 0.  0.
      -15    1    5    5    0    0  0.85245622604E+02 -0.41407190236E+02 -0.21607045778E+02  0.97218278798E+02  0.17769999504E+01 0.  1.
       16    1    5    5    0    0  0.17990788687E+02 -0.34749399484E+02 -0.67930640946E+02  0.78394905583E+02  0.00000000000E+00 0. -1.
        5    1    4    4  501    0  0.20743112065E+02  0.53425486560E+02 -0.76669020291E+02  0.95837299538E+02  0.46999998093E+01 0. -1.
        5    1    3    3  502    0 -0.73391910617E+02 -0.23287975831E+02  0.10251053588E+02  0.77819512079E+02  0.46999998093E+01 0.  1.
       -5    1    3    3    0  502 -0.50587612738E+02  0.46019078991E+02 -0.99610198364E+02  0.12091792179E+03  0.46999998093E+01 0.  1.
</event>
<event>
10   0  0.1583500E-03  0.2226787E+03  0.7818609E-02  0.1138678E+00
        2   -1    0    0  503    0  0.00000000000E+00  0.00000000000E+00  0.18393273912E+04  0.18393273912E+04  0.00000000000E+00 0.  1.
       21   -1    0    0  501  503  0.00000000000E+00  0.00000000000E+00 -0.23028360688E+02  0.23028360688E+02  0.25500000920E-02 0.  1.
       25    2    1    2    0    0  0.47016934000E+02  0.13350519660E+03  0.81307678901E+03  0.83471736394E+03  0.12499993293E+03 0.  0.
        6    2    1    2  501    0 -0.47016934000E+02 -0.13350519660E+03  0.10032222415E+04  0.10276383879E+04  0.17190567456E+03 0.  0.
       24    2    4    4    0    0 -0.14181151666E+02 -0.98447598645E+01  0.21617624186E+03  0.23024664749E+03  0.77351966836E+02 0.  0.
      -11    1    5    5    0    0 -0.44877314359E+02  0.49705729142E+01  0.12069535186E+03  0.12886445553E+03  0.51099999109E-03 0.  1.
       12    1    5    5    0    0  0.30696162692E+02 -0.14815332779E+02  0.95480890005E+02  0.10138219195E+03  0.00000000000E+00 0. -1.
        5    1    4    4  501    0 -0.32835782334E+02 -0.12366043674E+03  0.78704599964E+03  0.79739174046E+03  0.46999998093E+01 0. -1.
        5    1    3    3  502    0  0.39813881695E+02  0.12351294355E+03  0.81104836262E+03  0.82137818872E+03  0.46999998093E+01 0.  1.
       -5    1    3    3    0  502  0.72030523055E+01  0.99922530547E+01  0.20284263873E+01  0.13339175216E+02  0.46999998093E+01 0.  1.
</event>
<event>
10   0  0.1583500E-03  0.1926484E+03  0.7818609E-02  0.1168179E+00
       21   -1    0    0  501  503  0.00000000000E+00  0.00000000000E+00  0.54185320676E+02  0.54185320676E+02  0.00000000000E+00 0. -1.
        2   -1    0    0  503    0  0.00000000000E+00  0.00000000000E+00 -0.86785144556E+03  0.86785144556E+03  0.25500000920E-02 0. -1.
       25    2    1    2    0    0  0.32010606106E+02  0.67371188952E+02 -0.65928451643E+03  0.67516212563E+03  0.12499706508E+03 0.  0.
        6    2    1    2  501    0 -0.32010606106E+02 -0.67371188952E+02 -0.15438160845E+03  0.24687464061E+03  0.17762277766E+03 0.  0.
       24    2    4    4    0    0  0.34997212362E+02 -0.84688961754E+02 -0.11634357068E+03  0.16776120745E+03  0.78809714942E+02 0.  0.
      -13    1    5    5    0    0  0.27457337417E+02 -0.93546369171E+02 -0.70103586862E+02  0.12008060883E+03  0.10565999895E+00 0.  1.
       14    1    5    5    0    0  0.75398749444E+01  0.88574074177E+01 -0.46239983823E+02  0.47680598615E+02  0.00000000000E+00 0. -1.
        5    1    4    4  501    0 -0.67007818468E+02  0.17317772802E+02 -0.38038037766E+02  0.79113433157E+02  0.46999998093E+01 0. -1.
        5    1    3    3  502    0  0.51149845286E+02  0.42973234745E+02 -0.62545721466E+03  0.62903244983E+03  0.46999998093E+01 0. -1.
       -5    1    3    3    0  502 -0.19139239180E+02  0.24397954207E+02 -0.33827301776E+02  0.46129675802E+02  0.46999998093E+01 0. -1.
</event>
<event>
10   0  0.1583500E-03  0.1755817E+03  0.7818609E-02  0.1186369E+00
       21   -1    0    0  501  503  0.00000000000E+00  0.00000000000E+00  0.72667184976E+02  0.72667184976E+02  0.00000000000E+00 0.  1.
        2   -1    0    0  503    0  0.00000000000E+00  0.00000000000E+00 -0.43497687545E+03  0.43497687545E+03  0.25500000920E-02 0.  1.
       25    2    1    2    0    0 -0.38978599341E+01  0.24752519233E+02 -0.28742821316E+02  0.13068808560E+03  0.12500138168E+03 0.  0.
        6    2    1    2  501    0  0.38978599341E+01 -0.24752519233E+02 -0.33356686915E+03  0.37695597482E+03  0.17378455121E+03 0.  0.
       24    2    4    4    0    0 -0.33848128987E+02  0.63745269149E+01 -0.31037553128E+03  0.32260911813E+03  0.80977418195E+02 0.  0.
      -11    1    5    5    0    0 -0.65943510976E+01  0.24582785724E+02 -0.26119123719E+02  0.36469267123E+02  0.51099999109E-03 0.  1.
       12    1    5    5    0    0 -0.27253777889E+02 -0.18208258809E+02 -0.28425640756E+03  0.28613985101E+03  0.00000000000E+00 0. -1.
        5    1    4    4  501    0  0.37745988921E+02 -0.31127046148E+02 -0.23191337874E+02  0.54346856690E+02  0.46999998093E+01 0. -1.
        5    1    3    3  502    0  0.13821664236E+02 -0.49185934152E+02 -0.11049721133E+02  0.52483148305E+02  0.46999998093E+01 0.  1.
       -5    1    3    3    0  502 -0.17719524170E+02  0.73938453385E+02 -0.17693100183E+02  0.78204937300E+02  0.46999998093E+01 0.  1.
</event>
<event>
10   0  0.1583500E-03  0.1803757E+03  0.7818609E-02  0.1179548E+00
        2   -1    0    0  503    0  0.00000000000E+00  0.00000000000E+00  0.40756508971E+03  0.40756508972E+03  0.00000000000E+00 0.  1.
       21   -1    0    0  501  503  0.00000000000E+00  0.00000000000E+00 -0.62636267435E+02  0.62636267435E+02  0.25500000920E-02 0.  1.
       25    2    1    2    0    0  0.51771145349E+02  0.21290326047E+02  0.17652567519E+03  0.22343219108E+03  0.12500840186E+03 0.  0.
        6    2    1    2  501    0 -0.51771145349E+02 -0.21290326047E+02  0.16840314708E+03  0.24676916607E+03  0.17146974048E+03 0.  0.
       24    2    4    4    0    0 -0.30386668284E+02 -0.11450200779E+02  0.10493846012E+02  0.87045776150E+02  0.80077397773E+02 0.  0.
      -11    1    5    5    0    0  0.98556467699E+01  0.22803420059E+02  0.21745076277E+02  0.33014816101E+02  0.51099999109E-03 0.  1.
       12    1    5    5    0    0 -0.40242315053E+02 -0.34253620837E+02 -0.11251230265E+02  0.54030960049E+02  0.00000000000E+00 0. -1.
        5    1    4    4  501    0 -0.21384477066E+02 -0.98401252685E+01  0.15790930107E+03  0.15972338992E+03  0.46999998093E+01 0. -1.
        5    1    3    3  502    0  0.10050118358E+02 -0.31503173851E+02  0.14532337253E+03  0.14911213044E+03  0.46999998093E+01 0.  1.
       -5    1    3    3    0  502  0.41721026991E+02  0.52793499898E+02  0.31202302659E+02  0.74320060643E+02  0.46999998093E+01 0.  1.
</event>
<event>
10   0  0.1583500E-03  0.2419754E+03  0.7818609E-02  0.1123870E+00
       21   -1    0    0  501  503  0.00000000000E+00  0.00000000000E+00  0.70947028566E+03  0.70947028566E+03  0.00000000000E+00 0. -1.
       -2   -1    0    0    0  501  0.00000000000E+00  0.00000000000E+00 -0.10926873031E+03  0.10926873034E+03  0.25500000920E-02 0. -1.
       25    2    1    2    0    0  0.13417764777E+03  0.10543920079E+03  0.49549621723E+02  0.21726612436E+03  0.12501334951E+03 0.  0.
       -6    2    1    2    0  503 -0.13417764777E+03 -0.10543920079E+03  0.55065193363E+03  0.60147289164E+03  0.17155471763E+03 0.  0.
      -24    2    4    4    0    0 -0.53002153464E+02 -0.11654618388E+03  0.41634722969E+03  0.44407953267E+03  0.86425542609E+02 0.  0.
       15    1    5    5    0    0 -0.91110232646E+01 -0.70840439306E+02  0.10942593543E+03  0.13068500931E+03  0.17769999504E+01 0. -1.
      -16    1    5    5    0    0 -0.43891130199E+02 -0.45705744574E+02  0.30692129427E+03  0.31339452336E+03  0.00000000000E+00 0.  1.
       -5    1    4    4    0  503 -0.81175494306E+02  0.11106983091E+02  0.13430470394E+03  0.15739335897E+03  0.46999998093E+01 0.  1.
        5    1    3    3  502    0  0.12807433594E+03  0.60179751443E+02 -0.10155708851E+02  0.14195022519E+03  0.46999998093E+01 0.  1.
       -5    1    3    3    0  502  0.61033118275E+01  0.45259449346E+02  0.59705330574E+02  0.75315899168E+02  0.46999998093E+01 0.  1.
</event>
<event>
10   0  0.1583500E-03  0.1791918E+03  0.7818609E-02  0.1181579E+00
       21   -1    0    0  501  503  0.00000000000E+00  0.00000000000E+00  0.29154457787E+03  0.29154457787E+03  0.00000000000E+00 0. -1.
        2   -1    0    0  503    0  0.00000000000E+00  0.00000000000E+00 -0.85455856267E+02  0.85455856305E+02  0.25500000920E-02 0. -1.
       25    2    1    2    0    0 -0.18667839464E+02 -0.42896592205E+02  0.11399427451E+03  0.17552809797E+03  0.12500725060E+03 0.  0.
        6    2    1    2  501    0  0.18667839464E+02  0.42896592205E+02  0.92094447092E+02  0.20147233620E+03  0.17297719276E+03 0.  0.
       24    2    4    4    0    0 -0.53063621068E+02  0.16590615974E+02  0.27614507967E+02  0.10138657616E+03  0.80160341541E+02 0.  0.
      -15    1    5    5    0    0 -0.60127722131E+02  0.83670546801E+01 -0.10611368287E+02  0.61653138106E+02  0.17769999504E+01 0.  1.
       16    1    5    5    0    0  0.70641010629E+01  0.82235612943E+01  0.38225876254E+02  0.39733438053E+02  0.00000000000E+00 0. -1.
        5    1    4    4  501    0  0.71731460532E+02  0.26305976230E+02  0.64479939125E+02  0.10008576004E+03  0.46999998093E+01 0. -1.
        5    1    3    3  502    0  0.40572010227E+01 -0.35256538733E+02  0.13722350383E+03  0.14181630515E+03  0.46999998093E+01 0. -1.
       -5    1    3    3    0  502 -0.22725040487E+02 -0.76400534719E+01 -0.23229229323E+02  0.33711792823E+02  0.46999998093E+01 0. -1.
</event>
<event>
10   0  0.1583500E-03  0.1903294E+03  0.7818609E-02  0.1168575E+00
       21   -1    0    0  501  503  0.00000000000E+00  0.00000000000E+00  0.61001514015E+02  0.61001514015E+02  0.00000000000E+00 0. -1.
       -2   -1    0    0    0  501  0.00000000000E+00  0.00000000000E+00 -0.52394104673E+03  0.52394104674E+03  0.25500000920E-02 0. -1.
       25    2    1    2    0    0 -0.72758056317E+02  0.38159599683E+02 -0.29653627731E+03  0.33212778821E+03  0.12500085654E+03 0.  0.
       -6    2    1    2    0  503  0.72758056317E+02 -0.38159599683E+02 -0.16640325541E+03  0.25281477254E+03  0.17168394216E+03 0.  0.
      -24    2    4    4    0    0  0.97160383523E+02 -0.14870558318E+02 -0.56802269281E+02  0.13804404814E+03  0.78539084543E+02 0.  0.
       13    1    5    5    0    0  0.10438796277E+03 -0.26310857455E+02 -0.61178161450E+02  0.12382199560E+03  0.10565999895E+00 0. -1.
      -14    1    5    5    0    0 -0.72275792515E+01  0.11440299137E+02  0.43758921689E+01  0.14222052540E+02  0.00000000000E+00 0.  1.
       -5    1    4    4    0  503 -0.24402327205E+02 -0.23289041365E+02 -0.10960098613E+03  0.11477072440E+03  0.46999998093E+01 0.  1.
        5    1    3    3  502    0 -0.80101379906E+02 -0.26356596986E+02 -0.17036319781E+03  0.19014891647E+03  0.46999998093E+01 0.  1.
       -5    1    3    3    0  502  0.73433235886E+01  0.64516196669E+02 -0.12617307950E+03  0.14197887175E+03  0.46999998093E+01 0.  1.
</event>
<event>
10   0  0.1583500E-03  0.1833939E+03  0.7818609E-02  0.1176564E+00
       -2   -1    0    0    0  501  0.00000000000E+00  0.00000000000E+00  0.93774626950E+03  0.93774626951E+03  0.00000000000E+00 0.  1.
       21   -1    0    0  501  503  0.00000000000E+00  0.00000000000E+00 -0.34982588558E+02  0.34982588558E+02  0.25500000920E-02 0.  1.
       25    2    1    2    0    0  0.59375363470E+02  0.16704574273E+02  0.62162581738E+03  0.63706264437E+03  0.12500271769E+03 0.  0.
       -6    2    1    2    0  503 -0.59375363470E+02 -0.16704574273E+02  0.28113786356E+03  0.33566621369E+03  0.17271025475E+03 0.  0.
      -24    2    4    4    0    0  0.51853366866E+01  0.41994237544E+02  0.94398441411E+02  0.12949314004E+03  0.77890974279E+02 0.  0.
       13    1    5    5    0    0  0.69869416134E+01 -0.21718143666E+02  0.38319426546E+02  0.44596913932E+02  0.10565999895E+00 0. -1.
      -14    1    5    5    0    0 -0.18016049268E+01  0.63712381210E+02  0.56079014865E+02  0.84896226112E+02  0.00000000000E+00 0.  1.
       -5    1    4    4    0  503 -0.64560700157E+02 -0.58698811817E+02  0.18673942215E+03  0.20617307365E+03  0.46999998093E+01 0.  1.
        5    1    3    3  502    0  0.80691518389E+02 -0.19552318778E+02  0.26015696253E+03  0.27312478734E+03  0.46999998093E+01 0.  1.
       -5    1    3    3    0  502 -0.21316154919E+02  0.36256893051E+02  0.36146885485E+03  0.36393785703E+03  0.46999998093E+01 0.  1.
</event>
<event>
10   0  0.1583500E-03  0.1924002E+03  0.7818609E-02  0.1167462E+00
       21   -1    0    0  501  503  0.00000000000E+00  0.00000000000E+00  0.54776157110E+02  0.54776157110E+02  0.00000000000E+00 0. -1.
        2   -1    0    0  503    0  0.00000000000E+00  0.00000000000E+00 -0.64947531799E+03  0.64947531800E+03  0.25500000920E-02 0. -1.
       25    2    1    2    0    0 -0.38521484063E+02 -0.70415693750E+02 -0.41576241024E+03  0.44150407238E+03  0.12500075798E+03 0.  0.
        6    2    1    2  501    0  0.38521484063E+02  0.70415693750E+02 -0.17893675064E+03  0.26274740273E+03  0.17485869224E+03 0.  0.
       24    2    4    4    0    0 -0.10900129078E+02  0.34424550586E+02 -0.17902446296E+02  0.90433748582E+02  0.80956178283E+02 0.  0.
      -11    1    5    5    0    0 -0.42095722975E+02  0.38665036721E+02 -0.11155374276E+02  0.58236391826E+02  0.51099999109E-03 0.  1.
       12    1    5    5    0    0  0.31195593897E+02 -0.42404861352E+01 -0.67470720203E+01  0.32197356756E+02  0.00000000000E+00 0. -1.
        5    1    4    4  501    0  0.49421613141E+02  0.35991143164E+02 -0.16103430434E+03  0.17231365415E+03  0.46999998093E+01 0. -1.
        5    1    3    3  502    0 -0.47635880074E+02  0.12193952159E+02 -0.68803284115E+02  0.84698591741E+02  0.46999998093E+01 0. -1.
       -5    1    3    3    0  502  0.91143960112E+01 -0.82609645909E+02 -0.34695912613E+03  0.35680548064E+03  0.46999998093E+01 0. -1.
</event>
<event>
10   0  0.1583500E-03  0.2025942E+03  0.7818609E-02  0.1156054E+00
        4   -1    0    0  503    0  0.00000000000E+00  0.00000000000E+00  0.45364223326E+02  0.45381997069E+02  0.00000000000E+00 0. -1.
       21   -1    0    0  501  503  0.00000000000E+00  0.00000000000E+00 -0.88564357838E+03  0.88564357838E+03  0.12699999809E+01 0. -1.
       25    2    1    2    0    0  0.76802007673E+02  0.77238383613E+02 -0.56761171086E+03  0.59133150700E+03  0.12500232226E+03 0.  0.
        6    2    1    2  501    0 -0.76802007673E+02 -0.77238383613E+02 -0.27266764419E+03  0.33969406845E+03  0.17082183604E+03 0.  0.
       24    2    4    4    0    0 -0.11267738135E+03 -0.88183535263E+02 -0.20760571566E+03  0.26444791690E+03  0.79749855293E+02 0.  0.
      -15    1    5    5    0    0 -0.31191942431E+02  0.12543042435E+02 -0.34234960488E+02  0.48015158383E+02  0.17769999504E+01 0.  1.
       16    1    5    5    0    0 -0.81485438917E+02 -0.10072657770E+03 -0.17337075517E+03  0.21643275852E+03  0.00000000000E+00 0. -1.
        5    1    4    4  501    0  0.35875373676E+02  0.10945151650E+02 -0.65061928526E+02  0.75246151548E+02  0.46999998093E+01 0. -1.
        5    1    3    3  502    0  0.10821461401E+03  0.39390192863E+02 -0.36405890043E+03  0.38186772967E+03  0.46999998093E+01 0. -1.
       -5    1    3    3    0  502 -0.31412606339E+02  0.37848190749E+02 -0.20355281043E+03  0.20946377733E+03  0.46999998093E+01 0. -1.
</event>
<event>
10   0  0.1583500E-03  0.1937087E+03  0.7818609E-02  0.1164836E+00
        2   -1    0    0  503    0  0.00000000000E+00  0.00000000000E+00  0.46143261600E+03  0.46143261601E+03  0.00000000000E+00 0.  1.
       21   -1    0    0  501  503  0.00000000000E+00  0.00000000000E+00 -0.10541712029E+03  0.10541712029E+03  0.25500000920E-02 0. -1.
       25    2    1    2    0    0 -0.57066548363E+02  0.70922902160E+02  0.33874719258E+03  0.37237290978E+03  0.12500109783E+03 0.  0.
        6    2    1    2  501    0  0.57066548363E+02 -0.70922902160E+02  0.17268303130E+02  0.19447682652E+03  0.17098652803E+03 0.  0.
       24    2    4    4    0    0  0.83896443077E+02 -0.21107217879E+01 -0.81421602785E+01  0.11622888044E+03  0.79998684778E+02 0.  0.
      -13    1    5    5    0    0  0.60308853935E+02  0.76336195331E+01  0.31971468320E+02  0.68684903441E+02  0.10565999895E+00 0.  1.
       14    1    5    5    0    0  0.23587589142E+02 -0.97443413209E+01 -0.40113628598E+02  0.47543976996E+02  0.00000000000E+00 0. -1.
        5    1    4    4  501    0 -0.26829894714E+02 -0.68812180372E+02  0.25410463408E+02  0.78247946087E+02  0.46999998093E+01 0. -1.
        5    1    3    3  502    0 -0.48931081633E+02  0.23102684419E+02  0.34717929135E+02  0.64462464882E+02  0.46999998093E+01 0. -1.
       -5    1    3    3    0  502 -0.81354667301E+01  0.47820217742E+02  0.30402926345E+03  0.30791044489E+03  0.46999998093E+01 0. -1.
</event>
<event>
10   0  0.1583500E-03  0.2494483E+03  0.7818609E-02  0.1118750E+00
       21   -1    0    0  501  503  0.00000000000E+00  0.00000000000E+00  0.22527419637E+03  0.22527419637E+03  0.00000000000E+00 0.  1.
        2   -1    0    0  503    0  0.00000000000E+00  0.00000000000E+00 -0.24706494616E+03  0.24706494617E+03  0.25500000920E-02 0.  1.
       25    2    1    2    0    0  0.93979123935E+01 -0.18007034788E+03  0.16253572747E+02  0.22000636270E+03  0.12499988023E+03 0.  0.
        6    2    1    2  501    0 -0.93979123935E+01  0.18007034788E+03 -0.38044322533E+02  0.25233277984E+03  0.17236824059E+03 0.  0.
       24    2    4    4    0    0 -0.72659214551E+01  0.80712910044E+02  0.45142826925E+02  0.12264608942E+03  0.80229800980E+02 0.  0.
      -15    1    5    5    0    0 -0.94012954445E+01  0.95963141801E+02  0.29872881394E+02  0.10095967369E+03  0.17769999504E+01 0.  1.
       16    1    5    5    0    0  0.21353739894E+01 -0.15250231756E+02  0.15269945532E+02  0.21686415731E+02  0.00000000000E+00 0. -1.
        5    1    4    4  501    0 -0.21319909385E+01  0.99357437841E+02 -0.83187149459E+02  0.12968669042E+03  0.46999998093E+01 0. -1.
        5    1    3    3  502    0 -0.56926749074E+02 -0.10073502723E+03  0.54649641317E+01  0.11593168808E+03  0.46999998093E+01 0.  1.
       -5    1    3    3    0  502  0.66324661467E+02 -0.79335320658E+02  0.10788608616E+02  0.10407467462E+03  0.46999998093E+01 0.  1.
</event>
<event>
10   0  0.1583500E-03  0.2203150E+03  0.7818609E-02  0.1139805E+00
        2   -1    0    0  503    0  0.00000000000E+00  0.00000000000E+00  0.20057968229E+03  0.20057968230E+03  0.00000000000E+00 0.  1.
       21   -1    0    0  501  503  0.00000000000E+00  0.00000000000E+00 -0.21817003225E+03  0.21817003225E+03  0.25500000920E-02 0.  1.
       25    2    1    2    0    0  0.17043030792E+02 -0.14173030910E+03 -0.49606075677E+02  0.19612061763E+03  0.12499835399E+03 0.  0.
        6    2    1    2  501    0 -0.17043030792E+02  0.14173030910E+03  0.32015725713E+02  0.22262909692E+03  0.16781168817E+03 0.  0.
       24    2    4    4    0    0  0.52222665033E+02  0.63931637696E+02  0.44807066482E+01  0.11478366511E+03  0.79628839007E+02 0.  0.
      -11    1    5    5    0    0 -0.14451739955E+02  0.40434500945E+02 -0.58607175861E+01  0.43337624131E+02  0.51099999109E-03 0.  1.
       12    1    5    5    0    0  0.66674404988E+02  0.23497136751E+02  0.10341424234E+02  0.71446040976E+02  0.00000000000E+00 0. -1.
        5    1    4    4  501    0 -0.69265695825E+02  0.77798671402E+02  0.27535019065E+02  0.10784543181E+03  0.46999998093E+01 0. -1.
        5    1    3    3  502    0 -0.54794595032E+01 -0.57229048028E+02 -0.84111835617E+02  0.10199058439E+03  0.46999998093E+01 0. -1.
       -5    1    3    3    0  502  0.22522490295E+02 -0.84501261069E+02  0.34505759941E+02  0.94130033245E+02  0.46999998093E+01 0. -1.
</event>
<event>
10   0  0.1583500E-03  0.1897940E+03  0.7818609E-02  0.1168796E+00
        2   -1    0    0  503    0  0.00000000000E+00  0.00000000000E+00  0.33565891299E+04  0.33565891299E+04  0.00000000000E+00 0.  1.
       21   -1    0    0  501  503  0.00000000000E+00  0.00000000000E+00 -0.20316486714E+02  0.20316486714E+02  0.25500000920E-02 0. -1.
       25    2    1    2    0    0  0.38353329793E+02 -0.73708207367E+02  0.28639011865E+04  0.28678314083E+04  0.12499240959E+03 0.  0.
        6    2    1    2  501    0 -0.38353329793E+02  0.73708207367E+02  0.47237145663E+03  0.50907420829E+03  0.17063961665E+03 0.  0.
       24    2    4    4    0    0 -0.27540786232E+02  0.10497140341E+03  0.44488380275E+03  0.46580805941E+03  0.85311545675E+02 0.  0.
      -15    1    5    5    0    0  0.24637532024E+02  0.55576007259E+01  0.68216615443E+02  0.72763722151E+02  0.17769999504E+01 0.  1.
       16    1    5    5    0    0 -0.52178318256E+02  0.99413802682E+02  0.37666718730E+03  0.39304433726E+03  0.00000000000E+00 0. -1.
        5    1    4    4  501    0 -0.10812543561E+02 -0.31263196041E+02  0.27487653882E+02  0.43266148882E+02  0.46999998093E+01 0. -1.
        5    1    3    3  502    0 -0.30348157573E+02 -0.61417114685E+02  0.19704543362E+04  0.19716504390E+04  0.46999998093E+01 0.  1.
       -5    1    3    3    0  502  0.68701487366E+02 -0.12291092682E+02  0.89344685037E+03  0.89618096932E+03  0.46999998093E+01 0.  1.
</event>
<event>
10   0  0.1583500E-03  0.1877987E+03  0.7818609E-02  0.1174236E+00
        2   -1    0    0  503    0  0.00000000000E+00  0.00000000000E+00  0.77986350764E+03  0.77986350764E+03  0.00000000000E+00 0.  1.
       21   -1    0    0  501  503  0.00000000000E+00  0.00000000000E+00 -0.85610883060E+02  0.85610883060E+02  0.25500000920E-02 0. -1.
       25    2    1    2    0    0 -0.31635971659E+02  0.45837952548E+02  0.66067405398E+03  0.67469734056E+03  0.12499737264E+03 0.  0.
        6    2    1    2  501    0  0.31635971659E+02 -0.45837952548E+02  0.33578570599E+02  0.19077705014E+03  0.17934996476E+03 0.  0.
       24    2    4    4    0    0 -0.31975465756E+02  0.23812267782E+02  0.34944195549E+02  0.96323235541E+02  0.80421479688E+02 0.  0.
      -11    1    5    5    0    0 -0.32180161884E+02 -0.18167492388E+02  0.39506178388E+02  0.54095829133E+02  0.51099999109E-03 0.  1.
       12    1    5    5    0    0  0.20469612767E+00  0.41979760170E+02 -0.45619828389E+01  0.42227406407E+02  0.00000000000E+00 0. -1.
        5    1    4    4  501    0  0.63611437415E+02 -0.69650220331E+02 -0.13656249498E+01  0.94453814597E+02  0.46999998093E+01 0. -1.
        5    1    3    3  502    0  0.42706071347E+02  0.49476153468E+01  0.34818311224E+03  0.35085874234E+03  0.46999998093E+01 0. -1.
       -5    1    3    3    0  502 -0.74342043006E+02  0.40890337202E+02  0.31249094174E+03  0.32383859823E+03  0.46999998093E+01 0. -1.
</event>
<event>
10   0  0.1583500E-03  0.4319671E+03  0.7818609E-02  0.1034590E+00
       21   -1    0    0  501  503  0.00000000000E+00  0.00000000000E+00  0.30508697717E+03  0.30508697717E+03  0.00000000000E+00 0. -1.
        2   -1    0    0  503    0  0.00000000000E+00  0.00000000000E+00 -0.66441244953E+03  0.66441244954E+03  0.25500000920E-02 0.  1.
       25    2    1    2    0    0 -0.78946480089E+02 -0.38792141341E+03 -0.12164771138E+02  0.41531879724E+03  0.12500460784E+03 0.  0.
        6    2    1    2  501    0  0.78946480089E+02  0.38792141341E+03 -0.34716070122E+03  0.55418062947E+03  0.17285846204E+03 0.  0.
       24    2    4    4    0    0  0.58393584619E+02  0.19716542826E+03 -0.10364653366E+03  0.24412981559E+03  0.81072474333E+02 0.  0.
      -15    1    5    5    0    0 -0.17040490239E+02  0.14677431545E+02 -0.18134026303E+02  0.28944877667E+02  0.17769999504E+01 0.  1.
       16    1    5    5    0    0  0.75434074858E+02  0.18248799671E+03 -0.85512507359E+02  0.21518493792E+03  0.00000000000E+00 0. -1.
        5    1    4    4  501    0  0.20552895470E+02  0.19075598516E+03 -0.24351416756E+03  0.31005081388E+03  0.46999998093E+01 0. -1.
        5    1    3    3  502    0 -0.45145291363E+01  0.56155459273E+01 -0.12015011313E+02  0.14777206246E+02  0.46999998093E+01 0.  1.
       -5    1    3    3    0  502 -0.74431950953E+02 -0.39353695934E+03 -0.14975982489E+00  0.40054159100E+03  0.46999998093E+01 0.  1.
</event>
<event>
10   0  0.1583500E-03  0.1902521E+03  0.7818609E-02  0.1169000E+00
       -2   -1    0    0    0  501  0.00000000000E+00  0.00000000000E+00  0.96980578414E+02  0.96980578447E+02  0.00000000000E+00 0.  1.
       21   -1    0    0  501  503  0.00000000000E+00  0.00000000000E+00 -0.69365850249E+03  0.69365850249E+03  0.25500000920E-02 0. -1.
       25    2    1    2    0    0  0.79720732750E+02 -0.40581258795E+01  0.15932128939E+02  0.14916660743E+03  0.12499992170E+03 0.  0.
       -6    2    1    2    0  503 -0.79720732750E+02  0.40581258795E+01 -0.61261005302E+03  0.64147247351E+03  0.17269624661E+03 0.  0.
      -24    2    4    4    0    0 -0.11467488693E+03  0.14114654876E+02 -0.44171070748E+03  0.46668230510E+03  0.96615069296E+02 0.  0.
       13    1    5    5    0    0 -0.10520956636E+03  0.79147530185E+01 -0.44291062623E+03  0.45530377789E+03  0.10565999895E+00 0. -1.
      -14    1    5    5    0    0 -0.94653205712E+01  0.61999018570E+01  0.11999187457E+01  0.11378527214E+02  0.00000000000E+00 0.  1.
       -5    1    4    4    0  503  0.34954154176E+02 -0.10056528996E+02 -0.17089934553E+03  0.17479016841E+03  0.46999998093E+01 0.  1.
        5    1    3    3  502    0  0.61880449925E+02  0.24176178228E+02 -0.44401790824E+02  0.80045528939E+02  0.46999998093E+01 0. -1.
       -5    1    3    3    0  502  0.17840282826E+02 -0.28234304107E+02  0.60333919763E+02  0.69121078492E+02  0.46999998093E+01 0. -1.
</event>
<event>
10   0  0.1583500E-03  0.1776864E+03  0.7818609E-02  0.1183456E+00
        2   -1    0    0  503    0  0.00000000000E+00  0.00000000000E+00  0.78075066946E+03  0.78075066947E+03  0.00000000000E+00 0. -1.
       21   -1    0    0  501  503  0.00000000000E+00  0.00000000000E+00 -0.92739707205E+02  0.92739707205E+02  0.25500000920E-02 0. -1.
       25    2    1    2    0    0 -0.36901623361E+02  0.15611251601E+02  0.68324535442E+03  0.69574011897E+03  0.12499863129E+03 0.  0.
        6    2    1    2  501    0  0.36901623361E+02 -0.15611251601E+02  0.47656078354E+01  0.17775025770E+03  0.17310979785E+03 0.  0.
       24    2    4    4    0    0  0.19600116427E+02 -0.16626214281E+02 -0.60969230526E+02  0.10960679680E+03  0.87383106306E+02 0.  0.
      -15    1    5    5    0    0 -0.27106671892E+02  0.37919879063E+01 -0.50647450982E+02  0.57597507351E+02  0.17769999504E+01 0.  1.
       16    1    5    5    0    0  0.46706788318E+02 -0.20418202187E+02 -0.10321779545E+02  0.52009289445E+02  0.00000000000E+00 0. -1.
        5    1    4    4  501    0  0.17301506935E+02  0.10149626794E+01  0.65734838362E+02  0.68143460905E+02  0.46999998093E+01 0. -1.
        5    1    3    3  502    0  0.34905166441E+01  0.43840124067E+02  0.57516042133E+03  0.57685850990E+03  0.46999998093E+01 0. -1.
       -5    1    3    3    0  502 -0.40392140005E+02 -0.28228872466E+02  0.10808493309E+03  0.11888160907E+03  0.46999998093E+01 0. -1.
</event>
<event>
10   0  0.1583500E-03  0.2038715E+03  0.7818609E-02  0.1155326E+00
       21   -1    0    0  501  503  0.00000000000E+00  0.00000000000E+00  0.89351012312E+02  0.89351012312E+02  0.00000000000E+00 0. -1.
        2   -1    0    0  503    0  0.00000000000E+00  0.00000000000E+00 -0.62177046874E+03  0.62177046875E+03  0.25500000920E-02 0. -1.
       25    2    1    2    0    0  0.53201109376E+02  0.94535317749E+02 -0.46941292147E+03  0.49773585396E+03  0.12500082051E+03 0.  0.
        6    2    1    2  501    0 -0.53201109376E+02 -0.94535317749E+02 -0.63006534957E+02  0.21338562710E+03  0.17261610025E+03 0.  0.
       24    2    4    4    0    0 -0.38191582656E+02 -0.15501055408E+02  0.25660757128E+02  0.93570439415E+02  0.79987955165E+02 0.  0.
      -13    1    5    5    0    0 -0.15473468274E+00  0.22194937846E+02 -0.14604736773E+02  0.26569695313E+02  0.10565999895E+00 0.  1.
       14    1    5    5    0    0 -0.38036847973E+02 -0.37695993254E+02  0.40265493900E+02  0.67000744102E+02  0.00000000000E+00 0. -1.
        5    1    4    4  501    0 -0.15009526720E+02 -0.79034262341E+02 -0.88667292084E+02  0.11981518768E+03  0.46999998093E+01 0. -1.
        5    1    3    3  502    0  0.71037594229E+02  0.10282183504E+03 -0.27297703050E+03  0.30026191689E+03  0.46999998093E+01 0. -1.
       -5    1    3    3    0  502 -0.17836484853E+02 -0.82865172944E+01 -0.19643589097E+03  0.19747393706E+03  0.46999998093E+01 0. -1.
</event>
<event>
10   0  0.1583500E-03  0.2120091E+03  0.7818609E-02  0.1147620E+00
        2   -1    0    0  503    0  0.00000000000E+00  0.00000000000E+00  0.41023671813E+03  0.41023671814E+03  0.00000000000E+00 0.  1.
       21   -1    0    0  501  503  0.00000000000E+00  0.00000000000E+00 -0.10715473069E+03  0.10715473069E+03  0.25500000920E-02 0. -1.
       25    2    1    2    0    0  0.74661867840E+02  0.99894673952E+02  0.23656018692E+03  0.29519106834E+03  0.12499481748E+03 0.  0.
        6    2    1    2  501    0 -0.74661867840E+02 -0.99894673952E+02  0.66521800518E+02  0.22220038049E+03  0.17144829761E+03 0.  0.
       24    2    4    4    0    0 -0.35589520693E+02  0.22566327126E+02  0.52141019601E+02  0.92769928301E+02  0.64122699326E+02 0.  0.
      -15    1    5    5    0    0 -0.12144539141E+02  0.32222302362E+02  0.57319141967E+02  0.66891018568E+02  0.17769999504E+01 0.  1.
       16    1    5    5    0    0 -0.23444981552E+02 -0.96559752363E+01 -0.51781223655E+01  0.25878909733E+02  0.00000000000E+00 0. -1.
        5    1    4    4  501    0 -0.39072347147E+02 -0.12246100108E+03  0.14380780917E+02  0.12943045219E+03  0.46999998093E+01 0. -1.
        5    1    3    3  502    0  0.81155044505E+02  0.14564252851E+02  0.71630326250E+02  0.10932178350E+03  0.46999998093E+01 0.  1.
       -5    1    3    3    0  502 -0.64931766657E+01  0.85330421100E+02  0.16492986067E+03  0.18586928484E+03  0.46999998093E+01 0.  1.
</event>
<event>
10   0  0.1583500E-03  0.1736460E+03  0.7818609E-02  0.1188013E+00
       21   -1    0    0  501  503  0.00000000000E+00  0.00000000000E+00  0.19327648125E+03  0.19327648125E+03  0.00000000000E+00 0. -1.
        2   -1    0    0  503    0  0.00000000000E+00  0.00000000000E+00 -0.16026676085E+03  0.16026676087E+03  0.25500000920E-02 0. -1.
       25    2    1    2    0    0 -0.22816400837E+02  0.17421066980E+01 -0.76428202298E+02  0.14828826134E+03  0.12499806103E+03 0.  0.
        6    2    1    2  501    0  0.22816400837E+02 -0.17421066980E+01  0.10943792269E+03  0.20525498078E+03  0.17213170867E+03 0.  0.
       24    2    4    4    0    0  0.67775748729E+02  0.38684810693E+02  0.84607024986E+02  0.13972375089E+03  0.79210549743E+02 0.  0.
      -13    1    5    5    0    0  0.44950658387E+02  0.62116708534E+02  0.47230044863E+02  0.90054069704E+02  0.10565999895E+00 0.  1.
       14    1    5    5    0    0  0.22825090342E+02 -0.23431897841E+02  0.37376980123E+02  0.49669681182E+02  0.00000000000E+00 0. -1.
        5    1    4    4  501    0 -0.44959347892E+02 -0.40426917391E+02  0.24830897707E+02  0.65531229896E+02  0.46999998093E+01 0. -1.
        5    1    3    3  502    0  0.25028275877E+02 -0.50129271866E+02 -0.30594363832E+02  0.64011433258E+02  0.46999998093E+01 0. -1.
       -5    1    3    3    0  502 -0.47844676714E+02  0.51871378564E+02 -0.45833838466E+02  0.84276828077E+02  0.46999998093E+01 0. -1.
</event>
<event>
10   0  0.1583500E-03  0.2330058E+03  0.7818609E-02  0.1131067E+00
       -2   -1    0    0    0  501  0.00000000000E+00  0.00000000000E+00  0.16857415072E+03  0.16857415074E+03  0.00000000000E+00 0.  1.
       21   -1    0    0  501  503  0.00000000000E+00  0.00000000000E+00 -0.63810354579E+03  0.63810354579E+03  0.25500000920E-02 0. -1.
       25    2    1    2    0    0 -0.12337153726E+03  0.92240834832E+02  0.76808356234E+02  0.21272767073E+03  0.12499852194E+03 0.  0.
       -6    2    1    2    0  503  0.12337153726E+03 -0.92240834832E+02 -0.54633775130E+03  0.59395002581E+03  0.17482215776E+03 0.  0.
      -24    2    4    4    0    0  0.11645615174E+03 -0.16844987030E+02 -0.25323545507E+03  0.29119038108E+03  0.82570294062E+02 0.  0.
       15    1    5    5    0    0  0.52619616197E+02 -0.44911488325E+02 -0.16352007595E+03  0.17756080299E+03  0.17769999504E+01 0. -1.
      -16    1    5    5    0    0  0.63836535544E+02  0.28066501295E+02 -0.89715379128E+02  0.11362957809E+03  0.00000000000E+00 0.  1.
       -5    1    4    4    0  503  0.69153855211E+01 -0.75395847802E+02 -0.29310229623E+03  0.30275964473E+03  0.46999998093E+01 0.  1.
        5    1    3    3  502    0 -0.14981265653E+02  0.13302253226E+02 -0.33309868415E+02  0.39153870734E+02  0.46999998093E+01 0.  1.
       -5    1    3    3    0  502 -0.10839027161E+03  0.78938581606E+02  0.11011822465E+03  0.17357379999E+03  0.46999998093E+01 0.  1.
</event>
<event>
10   0  0.1583500E-03  0.2413448E+03  0.7818609E-02  0.1124552E+00
       21   -1    0    0  501  503  0.00000000000E+00  0.00000000000E+00  0.41408053833E+03  0.41408053833E+03  0.00000000000E+00 0.  1.
        2   -1    0    0  503    0  0.00000000000E+00  0.00000000000E+00 -0.16855649496E+03  0.16855649498E+03  0.25500000920E-02 0.  1.
       25    2    1    2    0    0  0.15967565679E+03 -0.53121745289E+02 -0.35060666142E+02  0.21253555010E+03  0.12499549813E+03 0.  0.
        6    2    1    2  501    0 -0.15967565679E+03  0.53121745289E+02  0.28058470951E+03  0.37010148321E+03  0.17300027013E+03 0.  0.
       24    2    4    4    0    0 -0.10168133919E+03 -0.32326197124E+02  0.20025497400E+03  0.23918300421E+03  0.75646395366E+02 0.  0.
      -11    1    5    5    0    0 -0.10371342124E+03 -0.17695510998E+02  0.19803134006E+03  0.22424543808E+03  0.51099999109E-03 0.  1.
       12    1    5    5    0    0  0.20320820494E+01 -0.14630686126E+02  0.22236339416E+01  0.14937566130E+02  0.00000000000E+00 0. -1.
        5    1    4    4  501    0 -0.57994317600E+02  0.85447942413E+02  0.80329735508E+02  0.13091847899E+03  0.46999998093E+01 0. -1.
        5    1    3    3  502    0  0.14775513654E+02 -0.62067716057E+02 -0.47235973867E+01  0.64149197585E+02  0.46999998093E+01 0.  1.
       -5    1    3    3    0  502  0.14490014314E+03  0.89459707680E+01 -0.30337068755E+02  0.14838635252E+03  0.46999998093E+01 0.  1.
</event>
<event>
10   0  0.1583500E-03  0.1792944E+03  0.7818609E-02  0.1183775E+00
       -4   -1    0    0    0  501  0.00000000000E+00  0.00000000000E+00  0.53455582530E+03  0.53455733393E+03  0.00000000000E+00 0.  1.
       21   -1    0    0  501  503  0.00000000000E+00  0.00000000000E+00 -0.27700120104E+03  0.27700120104E+03  0.12699999809E+01 0.  1.
       25    2    1    2    0    0 -0.17872967896E+02  0.12194280482E+02  0.49671242878E+03  0.51265563495E+03  0.12499767873E+03 0.  0.
       -6    2    1    2    0  503  0.17872967896E+02 -0.12194280482E+02 -0.23915780452E+03  0.29890290002E+03  0.17798411368E+03 0.  0.
      -24    2    4    4    0    0  0.41234607445E+01 -0.71311267608E+02 -0.19901180551E+03  0.22598062394E+03  0.79744867234E+02 0.  0.
       13    1    5    5    0    0  0.34312491845E+01  0.16979811052E+02 -0.20595196384E+02  0.26912092681E+02  0.10565999895E+00 0. -1.
      -14    1    5    5    0    0  0.69221156003E+00 -0.88291078660E+02 -0.17841660912E+03  0.19906853126E+03  0.00000000000E+00 0.  1.
       -5    1    4    4    0  503  0.13749507151E+02  0.59116987126E+02 -0.40145999012E+02  0.72922276079E+02  0.46999998093E+01 0.  1.
        5    1    3    3  502    0 -0.68968526396E+02  0.24550456477E+02  0.26151129775E+03  0.27160565421E+03  0.46999998093E+01 0.  1.
       -5    1    3    3    0  502  0.51095558500E+02 -0.12356175995E+02  0.23520113102E+03  0.24104998074E+03  0.46999998093E+01 0.  1.
</event>
<event>
10   0  0.1583500E-03  0.2738460E+03  0.7818609E-02  0.1103070E+00
       21   -1    0    0  501  503  0.00000000000E+00  0.00000000000E+00  0.16630723522E+03  0.16630723522E+03  0.00000000000E+00 0.  1.
        2   -1    0    0  503    0  0.00000000000E+00  0.00000000000E+00 -0.11484921222E+04  0.11484921222E+04  0.25500000920E-02 0. -1.
       25    2    1    2    0    0 -0.15760567598E+03 -0.14347914624E+03 -0.10097763667E+04  0.10395668969E+04  0.12500083146E+03 0.  0.
        6    2    1    2  501    0  0.15760567598E+03  0.14347914624E+03  0.27591479743E+02  0.27523246050E+03  0.17194709376E+03 0.  0.
       24    2    4    4    0    0  0.73728109770E+02  0.79371204335E+02  0.81452077216E+02  0.15662247658E+03  0.78489088655E+02 0.  0.
      -11    1    5    5    0    0  0.70209755690E+02  0.36255006370E+02  0.81285013447E+02  0.11336264240E+03  0.51099999109E-03 0.  1.
       12    1    5    5    0    0  0.35183540795E+01  0.43116197965E+02  0.16706376889E+00  0.43259834174E+02  0.00000000000E+00 0. -1.
        5    1    4    4  501    0  0.83877566214E+02  0.64107941900E+02 -0.53860597473E+02  0.11860998393E+03  0.46999998093E+01 0. -1.
        5    1    3    3  502    0 -0.12364933710E+02  0.47461965328E-01 -0.31783714962E+03  0.31811230331E+03  0.46999998093E+01 0.  1.
       -5    1    3    3    0  502 -0.14524074227E+03 -0.14352660820E+03 -0.69193921710E+03  0.72145459360E+03  0.46999998093E+01 0.  1.
</event>
<event>
10   0  0.1583500E-03  0.4456243E+03  0.7818609E-02  0.1030250E+00
        2   -1    0    0  503    0  0.00000000000E+00  0.00000000000E+00  0.91001386889E+03  0.91001386889E+03  0.00000000000E+00 0. -1.
       21   -1    0    0  501  503  0.00000000000E+00  0.00000000000E+00 -0.22250026830E+03  0.22250026830E+03  0.25500000920E-02 0.  1.
       25    2    1    2    0    0 -0.25481693089E+03  0.32279768086E+03  0.46908290338E+03  0.63623500486E+03  0.12500480044E+03 0.  0.
        6    2    1    2  501    0  0.25481693089E+03 -0.32279768086E+03  0.21843069721E+03  0.49627913234E+03  0.17161292689E+03 0.  0.
       24    2    4    4    0    0  0.10806786948E+03 -0.19278592075E+03  0.59642760587E+02  0.24394196978E+03  0.84293238629E+02 0.  0.
      -13    1    5    5    0    0  0.11268774863E+03 -0.12385229744E+03  0.41510749602E+02  0.17251398137E+03  0.10565999895E+00 0.  1.
       14    1    5    5    0    0 -0.46198791517E+01 -0.68933623311E+02  0.18132010986E+02  0.71427988412E+02  0.00000000000E+00 0. -1.
        5    1    4    4  501    0  0.14674906141E+03 -0.13001176011E+03  0.15878793662E+03  0.25233716255E+03  0.46999998093E+01 0. -1.
        5    1    3    3  502    0 -0.11220808321E+03  0.52250588482E+02  0.12907959408E+03  0.17889776281E+03  0.46999998093E+01 0. -1.
       -5    1    3    3    0  502 -0.14260884768E+03  0.27054709237E+03  0.34000330930E+03  0.45733724205E+03  0.46999998093E+01 0. -1.
</event>
<event>
10   0  0.1583500E-03  0.1821205E+03  0.7818609E-02  0.1178082E+00
       21   -1    0    0  501  503  0.00000000000E+00  0.00000000000E+00  0.77008930223E+02  0.77008930223E+02  0.00000000000E+00 0. -1.
        2   -1    0    0  503    0  0.00000000000E+00  0.00000000000E+00 -0.13227995418E+04  0.13227995418E+04  0.25500000920E-02 0. -1.
       25    2    1    2    0    0 -0.93305160367E+01  0.56614157498E+02 -0.12054534333E+04  0.12132744282E+04  0.12499854776E+03 0.  0.
        6    2    1    2  501    0  0.93305160367E+01 -0.56614157498E+02 -0.40337178224E+02  0.18653404376E+03  0.17284571205E+03 0.  0.
       24    2    4    4    0    0  0.33343654532E+02 -0.61726883009E+02 -0.85624634637E+02  0.13480576823E+03  0.76935100625E+02 0.  0.
      -11    1    5    5    0    0  0.83371653403E+01 -0.65051276137E+02 -0.87681783357E+02  0.10949553409E+03  0.51099999109E-03 0.  1.
       12    1    5    5    0    0  0.25006489192E+02  0.33243931276E+01  0.20571487205E+01  0.25310234140E+02  0.00000000000E+00 0. -1.
        5    1    4    4  501    0 -0.24013138496E+02  0.51127255109E+01  0.45287456413E+02  0.51728275528E+02  0.46999998093E+01 0. -1.
        5    1    3    3  502    0  0.50484885215E+02  0.55780225331E+02 -0.56281924105E+03  0.56784482499E+03  0.46999998093E+01 0. -1.
       -5    1    3    3    0  502 -0.59815401252E+02  0.83393216735E+00 -0.64263419226E+03  0.64542960324E+03  0.46999998093E+01 0. -1.
</event>
<event>
10   0  0.1583500E-03  0.1983693E+03  0.7818609E-02  0.1160537E+00
       21   -1    0    0  501  503  0.00000000000E+00  0.00000000000E+00  0.47245006985E+02  0.47245006985E+02  0.00000000000E+00 0.  1.
        2   -1    0    0  503    0  0.00000000000E+00  0.00000000000E+00 -0.10342780275E+04  0.10342780275E+04  0.25500000920E-02 0.  1.
       25    2    1    2    0    0  0.62046580446E+02 -0.76342904990E+02 -0.77503132073E+03  0.79118682520E+03  0.12500010789E+03 0.  0.
        6    2    1    2  501    0 -0.62046580446E+02  0.76342904990E+02 -0.21200169983E+03  0.29033620933E+03  0.17225671665E+03 0.  0.
       24    2    4    4    0    0 -0.49023057920E+02  0.33058169549E+02 -0.22306311057E+03  0.24356415285E+03  0.77911760833E+02 0.  0.
      -13    1    5    5    0    0 -0.12755406018E+02 -0.15011082442E+01  0.19949357912E+01  0.12997870652E+02  0.10565999895E+00 0.  1.
       14    1    5    5    0    0 -0.36267651902E+02  0.34559277793E+02 -0.22505804636E+03  0.23056628220E+03  0.00000000000E+00 0. -1.
        5    1    4    4  501    0 -0.13023522526E+02  0.43284735441E+02  0.11061410741E+02  0.46772056476E+02  0.46999998093E+01 0. -1.
        5    1    3    3  502    0 -0.15688102775E+02 -0.62371885116E+01 -0.12588180657E+02  0.21577103134E+02  0.46999998093E+01 0. -1.
       -5    1    3    3    0  502  0.77734683221E+02 -0.70105716479E+02 -0.76244314007E+03  0.76960972207E+03  0.46999998093E+01 0. -1.
</event>
<event>
10   0  0.1583500E-03  0.4078874E+03  0.7818609E-02  0.1042606E+00
       21   -1    0    0  501  503  0.00000000000E+00  0.00000000000E+00  0.39983803178E+03  0.39983803178E+03  0.00000000000E+00 0.  1.
        4   -1    0    0  503    0  0.00000000000E+00  0.00000000000E+00 -0.93409545947E+03  0.93409632282E+03  0.12699999809E+01 0. -1.
       25    2    1    2    0    0  0.40707232800E+02  0.36745054935E+03 -0.76969217987E+03  0.86297611298E+03  0.12499893917E+03 0.  0.
        6    2    1    2  501    0 -0.40707232800E+02 -0.36745054935E+03  0.23543475219E+03  0.47095824162E+03  0.17232283015E+03 0.  0.
       24    2    4    4    0    0 -0.17292279426E+02 -0.37336140264E+03  0.21329427440E+03  0.43786006972E+03  0.80803671076E+02 0.  0.
      -11    1    5    5    0    0  0.10892000698E+02 -0.35930922906E+02  0.48351947493E+02  0.61217462597E+02  0.51099999109E-03 0.  1.
       12    1    5    5    0    0 -0.28184280125E+02 -0.33743047973E+03  0.16494232690E+03  0.37664260713E+03  0.00000000000E+00 0. -1.
        5    1    4    4  501    0 -0.23414953374E+02  0.59108532836E+01  0.22140477791E+02  0.33098171899E+02  0.46999998093E+01 0. -1.
        5    1    3    3  502    0 -0.42604966914E+02  0.78786734784E+02 -0.18456093582E+03  0.20520078414E+03  0.46999998093E+01 0.  1.
       -5    1    3    3    0  502  0.83312199714E+02  0.28866381457E+03 -0.58513124406E+03  0.65777532884E+03  0.46999998093E+01 0.  1.
</event>
<event>
10   0  0.1583500E-03  0.1900927E+03  0.7818609E-02  0.1168945E+00
        2   -1    0    0  503    0  0.00000000000E+00  0.00000000000E+00  0.66591166235E+02  0.66591166284E+02  0.00000000000E+00 0. -1.
       21   -1    0    0  501  503  0.00000000000E+00  0.00000000000E+00 -0.60374068748E+03  0.60374068748E+03  0.25500000920E-02 0. -1.
       25    2    1    2    0    0  0.61472342650E+02  0.52516156808E+02 -0.67091292502E+02  0.16329145368E+03  0.12500424664E+03 0.  0.
        6    2    1    2  501    0 -0.61472342650E+02 -0.52516156808E+02 -0.47005822875E+03  0.50704040009E+03  0.17204195208E+03 0.  0.
       24    2    4    4    0    0 -0.55468477748E+01 -0.22689562481E+02 -0.41551102714E+03  0.42328615299E+03  0.77305691074E+02 0.  0.
      -15    1    5    5    0    0 -0.16633210641E+02  0.20627446173E+02 -0.69557383819E+02  0.74454970314E+02  0.17769999504E+01 0.  1.
       16    1    5    5    0    0  0.11086362866E+02 -0.43317008654E+02 -0.34595364332E+03  0.34883118267E+03  0.00000000000E+00 0. -1.
        5    1    4    4  501    0 -0.55925494875E+02 -0.29826594328E+02 -0.54547201609E+02  0.83754247103E+02  0.46999998093E+01 0. -1.
        5    1    3    3  502    0  0.34513201808E+02 -0.37067506751E+02 -0.42918022789E+02  0.66552293981E+02  0.46999998093E+01 0.  1.
       -5    1    3    3    0  502  0.26959140842E+02  0.89583663560E+02 -0.24173269713E+02  0.96739159695E+02  0.46999998093E+01 0.  1.
</event>
<event>
10   0  0.1583500E-03  0.1831933E+03  0.7818609E-02  0.1177792E+00
       21   -1    0    0  501  503  0.00000000000E+00  0.00000000000E+00  0.27558895360E+02  0.27558895360E+02  0.00000000000E+00 0. -1.
        2   -1    0    0  503    0  0.00000000000E+00  0.00000000000E+00 -0.95436317639E+03  0.95436317640E+03  0.25500000920E-02 0. -1.
       25    2    1    2    0    0  0.49998212962E+02  0.19460544882E+02 -0.48317090656E+03  0.50195295121E+03  0.12499642466E+03 0.  0.
        6    2    1    2  501    0 -0.49998212962E+02 -0.19460544882E+02 -0.44363337447E+03  0.47996912054E+03  0.17516064519E+03 0.  0.
       24    2    4    4    0    0 -0.18766676804E+02 -0.53373879569E+02 -0.12880619849E+03  0.16174944193E+03  0.79817830197E+02 0.  0.
      -11    1    5    5    0    0 -0.31736219341E+02 -0.72893431515E+01 -0.10158625021E+03  0.10667749703E+03  0.51099999109E-03 0.  1.
       12    1    5    5    0    0  0.12969542537E+02 -0.46084536418E+02 -0.27219948281E+02  0.55071944898E+02  0.00000000000E+00 0. -1.
        5    1    4    4  501    0 -0.31231536158E+02  0.33913334687E+02 -0.31482717598E+03  0.31821967861E+03  0.46999998093E+01 0. -1.
        5    1    3    3  502    0  0.75683731338E+02  0.53313455620E+02 -0.35136210611E+03  0.36338377970E+03  0.46999998093E+01 0.  1.
       -5    1    3    3    0  502 -0.25685518377E+02 -0.33852910738E+02 -0.13180880046E+03  0.13856917152E+03  0.46999998093E+01 0.  1.
</event>
<event>
10   0  0.1583500E-03  0.1949866E+03  0.7818609E-02  0.1163697E+00
        2   -1    0    0  503    0  0.00000000000E+00  0.00000000000E+00  0.76693694030E+03  0.76693694030E+03  0.00000000000E+00 0. -1.
       21   -1    0    0  501  503  0.00000000000E+00  0.00000000000E+00 -0.41235913851E+02  0.41235913851E+02  0.25500000920E-02 0.  1.
       25    2    1    2    0    0 -0.90473368782E+02  0.20478640012E+02  0.39056540561E+03  0.42044143521E+03  0.12499943693E+03 0.  0.
        6    2    1    2  501    0  0.90473368782E+02 -0.20478640012E+02  0.33513562084E+03  0.38773141894E+03  0.17150791154E+03 0.  0.
       24    2    4    4    0    0  0.92946033554E+02 -0.73629358772E+02  0.24615864287E+03  0.28395229973E+03  0.77295429611E+02 0.  0.
      -15    1    5    5    0    0  0.41669187146E+02 -0.65053775010E+00  0.34020125722E+02  0.53826304348E+02  0.17769999504E+01 0.  1.
       16    1    5    5    0    0  0.51276846407E+02 -0.72978821022E+02  0.21213851715E+03  0.23012599539E+03  0.00000000000E+00 0. -1.
        5    1    4    4  501    0 -0.24726647721E+01  0.53150718760E+02  0.88976977970E+02  0.10377911920E+03  0.46999998093E+01 0. -1.
        5    1    3    3  502    0 -0.59305092778E+02 -0.18051527826E+02  0.60862681805E+02  0.87001768493E+02  0.46999998093E+01 0. -1.
       -5    1    3    3    0  502 -0.31168276004E+02  0.38530167838E+02  0.32970272380E+03  0.33343966672E+03  0.46999998093E+01 0. -1.
</event>
<event>
10   0  0.1583500E-03  0.1807467E+03  0.7818609E-02  0.1179146E+00
       21   -1    0    0  501  503  0.00000000000E+00  0.00000000000E+00  0.17586593136E+03  0.17586593136E+03  0.00000000000E+00 0.  1.
        2   -1    0    0  503    0  0.00000000000E+00  0.00000000000E+00 -0.36818678705E+03  0.36818678706E+03  0.25500000920E-02 0.  1.
       25    2    1    2    0    0  0.55420421763E+02 -0.13143464721E+02 -0.30260040272E+03  0.33231956048E+03  0.12500045096E+03 0.  0.
        6    2    1    2  501    0 -0.55420421763E+02  0.13143464721E+02  0.11027954703E+03  0.21173315794E+03  0.17153768642E+03 0.  0.
       24    2    4    4    0    0 -0.66530887304E+02  0.18678230834E+02  0.14295561220E+03  0.17646431455E+03  0.76994233420E+02 0.  0.
      -13    1    5    5    0    0  0.15584357852E+02 -0.61143057006E+01  0.33050707329E+02  0.37048851032E+02  0.10565999895E+00 0.  1.
       14    1    5    5    0    0 -0.82115245156E+02  0.24792536534E+02  0.10990490487E+03  0.13941546352E+03  0.00000000000E+00 0. -1.
        5    1    4    4  501    0  0.11110465541E+02 -0.55347661125E+01 -0.32676065168E+02  0.35268843383E+02  0.46999998093E+01 0. -1.
        5    1    3    3  502    0  0.88233557651E+02  0.22989216831E+01 -0.13930813340E+03  0.16498270141E+03  0.46999998093E+01 0.  1.
       -5    1    3    3    0  502 -0.32813135888E+02 -0.15442386404E+02 -0.16329226933E+03  0.16733685907E+03  0.46999998093E+01 0.  1.
</event>
<event>
10   0  0.1583500E-03  0.3502187E+03  0.7818609E-02  0.1064712E+00
        2   -1    0    0  503    0  0.00000000000E+00  0.00000000000E+00  0.18605953467E+04  0.18605953467E+04  0.00000000000E+00 0.  1.
       21   -1    0    0  501  503  0.00000000000E+00  0.00000000000E+00 -0.77005616475E+02  0.77005616475E+02  0.25500000920E-02 0.  1.
       25    2    1    2    0    0  0.23812862142E+03  0.19049272808E+03  0.12961362323E+04  0.13373809438E+04  0.12500374533E+03 0.  0.
        6    2    1    2  501    0 -0.23812862142E+03 -0.19049272808E+03  0.48745349790E+03  0.60022001936E+03  0.17222206374E+03 0.  0.
       24    2    4    4    0    0 -0.77951658827E+02 -0.10457132706E+03  0.13849364438E+03  0.20673022805E+03  0.80902868302E+02 0.  0.
      -13    1    5    5    0    0 -0.44859559084E+02 -0.92173450412E+01  0.73764123068E+02  0.86824515587E+02  0.10565999895E+00 0.  1.
       14    1    5    5    0    0 -0.33092099742E+02 -0.95353982021E+02  0.64729521314E+02  0.11990571247E+03  0.00000000000E+00 0. -1.
        5    1    4    4  501    0 -0.16017696259E+03 -0.85921401016E+02  0.34895985352E+03  0.39348979131E+03  0.46999998093E+01 0. -1.
        5    1    3    3  502    0  0.25268864457E+03  0.18501240131E+03  0.12392232898E+04  0.12781930964E+04  0.46999998093E+01 0.  1.
       -5    1    3    3    0  502 -0.14560023146E+02  0.54803267723E+01  0.56912942575E+02  0.59187847454E+02  0.46999998093E+01 0.  1.
</event>
<event>
10   0  0.1583500E-03  0.1948557E+03  0.7818609E-02  0.1164491E+00
       -2   -1    0    0    0  501  0.00000000000E+00  0.00000000000E+00  0.16160857251E+03  0.16160857253E+03  0.00000000000E+00 0.  1.
       21   -1    0    0  501  503  0.00000000000E+00  0.00000000000E+00 -0.40304587374E+03  0.40304587374E+03  0.25500000920E-02 0.  1.
       25    2    1    2    0    0 -0.63031043519E+02 -0.62068063585E+02  0.91862193810E+02  0.17857504893E+03  0.12500011393E+03 0.  0.
       -6    2    1    2    0  503  0.63031043519E+02  0.62068063585E+02 -0.33329949504E+03  0.38607939734E+03  0.17361852059E+03 0.  0.
      -24    2    4    4    0    0 -0.30469653890E+02  0.41837031141E+02 -0.10886860672E+03  0.14206507661E+03  0.75175630899E+02 0.  0.
       15    1    5    5    0    0 -0.20180623707E+01 -0.18979925556E+02 -0.77325413605E+01  0.20670270307E+02  0.17769999504E+01 0. -1.
      -16    1    5    5    0    0 -0.28451591520E+02  0.60816956697E+02 -0.10113606536E+03  0.12139480630E+03  0.00000000000E+00 0.  1.
       -5    1    4    4    0  503  0.93500697409E+02  0.20231032444E+02 -0.22443088833E+03  0.24401432073E+03  0.46999998093E+01 0.  1.
        5    1    3    3  502    0  0.21931339106E+02 -0.22386854193E+02  0.77324682414E+02  0.83566448915E+02  0.46999998093E+01 0. -1.
       -5    1    3    3    0  502 -0.84962382625E+02 -0.39681209392E+02  0.14537511396E+02  0.95008600010E+02  0.46999998093E+01 0. -1.
</event>
<event>
10   0  0.1583500E-03  0.1803225E+03  0.7818609E-02  0.1179516E+00
        2   -1    0    0  503    0  0.00000000000E+00  0.00000000000E+00  0.26223339948E+04  0.26223339948E+04  0.00000000000E+00 0.  1.
       21   -1    0    0  501  503  0.00000000000E+00  0.00000000000E+00 -0.63763952816E+02  0.63763952816E+02  0.25500000920E-02 0.  1.
       25    2    1    2    0    0  0.56103923826E+02  0.69804824203E+01  0.24890664508E+04  0.24928443337E+04  0.12499879424E+03 0.  0.
        6    2    1    2  501    0 -0.56103923826E+02 -0.69804824203E+01  0.69503591213E+02  0.19325361387E+03  0.17123034975E+03 0.  0.
       24    2    4    4    0    0 -0.34352350360E+02 -0.41394765204E+02  0.10263050407E+03  0.14055678131E+03  0.79558644060E+02 0.  0.
      -15    1    5    5    0    0  0.19004611238E+02 -0.26371468795E+02  0.12759125726E+02  0.34965449129E+02  0.17769999504E+01 0.  1.
       16    1    5    5    0    0 -0.53356961598E+02 -0.15023296409E+02  0.89871378344E+02  0.10559133218E+03  0.00000000000E+00 0. -1.
        5    1    4    4  501    0 -0.21751573466E+02  0.34414282784E+02 -0.33126912858E+02  0.52696832556E+02  0.46999998093E+01 0. -1.
        5    1    3    3  502    0  0.11261475544E+01  0.60275168714E+02  0.10840181857E+04  0.10857034038E+04  0.46999998093E+01 0.  1.
       -5    1    3    3    0  502  0.54977776272E+02 -0.53294686294E+02  0.14050482651E+04  0.14071409299E+04  0.46999998093E+01 0.  1.
</event>
<event>
10   0  0.1583500E-03  0.1720286E+03  0.7818609E-02  0.1189976E+00
       21   -1    0    0  501  503  0.00000000000E+00  0.00000000000E+00  0.16569956317E+03  0.16569956317E+03  0.00000000000E+00 0.  1.
        4   -1    0    0  503    0  0.00000000000E+00  0.00000000000E+00 -0.21362850792E+03  0.21363228290E+03  0.12699999809E+01 0.  1.
       25    2    1    2    0    0  0.17782026790E+01 -0.54508264782E+01 -0.13705216401E+03  0.18558773973E+03  0.12500655969E+03 0.  0.
        6    2    1    2  501    0 -0.17782026790E+01  0.54508264782E+01  0.89123219256E+02  0.19374410634E+03  0.17193300154E+03 0.  0.
       24    2    4    4    0    0  0.27741598815E+02  0.60006854157E+02  0.75647473380E+02  0.13009299039E+03  0.82651237558E+02 0.  0.
      -13    1    5    5    0    0 -0.26650504774E+02  0.12586513146E+02  0.65661458938E+01  0.30195945983E+02  0.10565999895E+00 0.  1.
       14    1    5    5    0    0  0.54392103589E+02  0.47420341010E+02  0.69081327486E+02  0.99897044409E+02  0.00000000000E+00 0. -1.
        5    1    4    4  501    0 -0.29519801494E+02 -0.54556027678E+02  0.13475745876E+02  0.63651115948E+02  0.46999998093E+01 0. -1.
        5    1    3    3  502    0  0.58406607667E+02  0.21280789797E+02 -0.68641736696E+02  0.92725303173E+02  0.46999998093E+01 0.  1.
       -5    1    3    3    0  502 -0.56628404988E+02 -0.26731616275E+02 -0.68410427314E+02  0.92862436558E+02  0.46999998093E+01 0.  1.
</event>
<event>
10   0  0.1583500E-03  0.1782425E+03  0.7818609E-02  0.1182175E+00
       -2   -1    0    0    0  501  0.00000000000E+00  0.00000000000E+00  0.10943122040E+03  0.10943122043E+03  0.00000000000E+00 0. -1.
       21   -1    0    0  501  503  0.00000000000E+00  0.00000000000E+00 -0.22381767484E+03  0.22381767484E+03  0.25500000920E-02 0. -1.
       25    2    1    2    0    0  0.36902701327E+02  0.30347837689E+02 -0.61873166579E+02  0.14743172520E+03  0.12500009695E+03 0.  0.
       -6    2    1    2    0  503 -0.36902701327E+02 -0.30347837689E+02 -0.52513287857E+02  0.18581717006E+03  0.17171946503E+03 0.  0.
      -24    2    4    4    0    0  0.27791478187E+02  0.32881202651E+02 -0.23685136265E+02  0.90757185169E+02  0.76304267459E+02 0.  0.
       11    1    5    5    0    0  0.85261742696E+01 -0.12043554624E+02 -0.37218514351E+02  0.40036991226E+02  0.51099999109E-03 0. -1.
      -12    1    5    5    0    0  0.19265303917E+02  0.44924757274E+02  0.13533378087E+02  0.50720193943E+02  0.00000000000E+00 0.  1.
       -5    1    4    4    0  503 -0.64694179514E+02 -0.63229040340E+02 -0.28828151592E+02  0.95059984892E+02  0.46999998093E+01 0.  1.
        5    1    3    3  502    0 -0.16917412619E+02  0.79649107853E+01  0.31691592275E+02  0.37095628755E+02  0.46999998093E+01 0.  1.
       -5    1    3    3    0  502  0.53820113946E+02  0.22382926904E+02 -0.93564758855E+02  0.11033609645E+03  0.46999998093E+01 0.  1.
</event>
<event>
10   0  0.1583500E-03  0.2020798E+03  0.7818609E-02  0.1156722E+00
        2   -1    0    0  503    0  0.00000000000E+00  0.00000000000E+00  0.17299034007E+04  0.17299034007E+04  0.00000000000E+00 0.  1.
       21   -1    0    0  501  503  0.00000000000E+00  0.00000000000E+00 -0.23856100979E+02  0.23856100979E+02  0.25500000920E-02 0.  1.
       25    2    1    2    0    0 -0.10588333250E+03  0.14711156355E+02  0.11583947124E+04  0.11700133323E+04  0.12500075957E+03 0.  0.
        6    2    1    2  501    0  0.10588333250E+03 -0.14711156355E+02  0.54765258741E+03  0.58374616944E+03  0.17148917054E+03 0.  0.
       24    2    4    4    0    0  0.82940577725E+02  0.10134464911E+02  0.53449200326E+03  0.54715428692E+03  0.81940620791E+02 0.  0.
      -11    1    5    5    0    0  0.73452262615E+02  0.25037652783E+02  0.24219165239E+03  0.25432049746E+03  0.51099999109E-03 0.  1.
       12    1    5    5    0    0  0.94883151094E+01 -0.14903187873E+02  0.29230035086E+03  0.29283378946E+03  0.00000000000E+00 0. -1.
        5    1    4    4  501    0  0.22942754776E+02 -0.24845621266E+02  0.13160584152E+02  0.36591882518E+02  0.46999998093E+01 0. -1.
        5    1    3    3  502    0  0.88334775801E+01  0.27873541961E+02  0.77622981546E+02  0.83080574925E+02  0.46999998093E+01 0. -1.
       -5    1    3    3    0  502 -0.11471681008E+03 -0.13162385606E+02  0.10807717308E+04  0.10869327574E+04  0.46999998093E+01 0. -1.
</event>
<event>
10   0  0.1583500E-03  0.2728084E+03  0.7818609E-02  0.1103664E+00
       21   -1    0    0  501  503  0.00000000000E+00  0.00000000000E+00  0.88563946053E+03  0.88563946053E+03  0.00000000000E+00 0. -1.
        2   -1    0    0  503    0  0.00000000000E+00  0.00000000000E+00 -0.12070652101E+03  0.12070652104E+03  0.25500000920E-02 0.  1.
       25    2    1    2    0    0 -0.20922214605E+03 -0.34251574680E+02  0.64155033297E+02  0.25433927777E+03  0.12500209259E+03 0.  0.
        6    2    1    2  501    0  0.20922214605E+03  0.34251574680E+02  0.70077790622E+03  0.75200670380E+03  0.17168963844E+03 0.  0.
       24    2    4    4    0    0  0.29551842407E+02  0.21800790758E+02  0.29047248114E+03  0.30388945142E+03  0.81399941753E+02 0.  0.
      -11    1    5    5    0    0  0.72344590828E+01  0.44830743548E+02  0.23876145415E+03  0.24304148813E+03  0.51099999109E-03 0.  1.
       12    1    5    5    0    0  0.22317383324E+02 -0.23029952790E+02  0.51711026990E+02  0.60847963288E+02  0.00000000000E+00 0. -1.
        5    1    4    4  501    0  0.17967030365E+03  0.12450783922E+02  0.41030542508E+03  0.44811725238E+03  0.46999998093E+01 0. -1.
        5    1    3    3  502    0 -0.99518324292E+02  0.40116531338E+02  0.56848319544E+02  0.12151976954E+03  0.46999998093E+01 0. -1.
       -5    1    3    3    0  502 -0.10970382176E+03 -0.74368106019E+02  0.73067137537E+01  0.13281950823E+03  0.46999998093E+01 0. -1.
</event>
<event>
10   0  0.1583500E-03  0.2337140E+03  0.7818609E-02  0.1130090E+00
       21   -1    0    0  501  503  0.00000000000E+00  0.00000000000E+00  0.30547851924E+02  0.30547851924E+02  0.00000000000E+00 0.  1.
        2   -1    0    0  503    0  0.00000000000E+00  0.00000000000E+00 -0.21132650968E+04  0.21132650968E+04  0.25500000920E-02 0.  1.
       25    2    1    2    0    0  0.15126133510E+03 -0.45131614621E+02 -0.15373136301E+04  0.15504434882E+04  0.12499983446E+03 0.  0.
        6    2    1    2  501    0 -0.15126133510E+03  0.45131614621E+02 -0.54540361476E+03  0.59336946053E+03  0.17235242835E+03 0.  0.
       24    2    4    4    0    0 -0.12076820569E+03 -0.31175513760E+02 -0.30961489913E+03  0.34362755936E+03  0.81618880310E+02 0.  0.
      -13    1    5    5    0    0 -0.62064427069E+02  0.17931601497E+02 -0.87989180687E+02  0.10915879498E+03  0.10565999895E+00 0.  1.
       14    1    5    5    0    0 -0.58703778623E+02 -0.49107115257E+02 -0.22162571844E+03  0.23446876437E+03  0.00000000000E+00 0. -1.
        5    1    4    4  501    0 -0.30493129409E+02  0.76307128380E+02 -0.23578871563E+03  0.24974190117E+03  0.46999998093E+01 0. -1.
        5    1    3    3  502    0  0.17017246743E+02  0.33966431471E+01 -0.21989031995E+02  0.28403017404E+02  0.46999998093E+01 0. -1.
       -5    1    3    3    0  502  0.13424408836E+03 -0.48528257768E+02 -0.15153245981E+04  0.15220404708E+04  0.46999998093E+01 0. -1.
</event>
<event>
10   0  0.1583500E-03  0.1784245E+03  0.7818609E-02  0.1181981E+00
        2   -1    0    0  503    0  0.00000000000E+00  0.00000000000E+00  0.17813144963E+04  0.17813144963E+04  0.00000000000E+00 0.  1.
       21   -1    0    0  501  503  0.00000000000E+00  0.00000000000E+00 -0.16304253009E+02  0.16304253009E+02  0.25500000920E-02 0.  1.
       25    2    1    2    0    0 -0.46756065750E+02  0.11971350572E+02  0.11333297381E+04  0.11412228622E+04  0.12499553213E+03 0.  0.
        6    2    1    2  501    0  0.46756065750E+02 -0.11971350572E+02  0.63168050523E+03  0.65639588714E+03  0.17177269005E+03 0.  0.
       24    2    4    4    0    0  0.78896033255E+02  0.47549015015E+01  0.26015514045E+03  0.28307841943E+03  0.78775004256E+02 0.  0.
      -13    1    5    5    0    0  0.32378108483E+02 -0.35047315075E+02  0.14517338754E+03  0.15281354592E+03  0.10565999895E+00 0.  1.
       14    1    5    5    0    0  0.46517924772E+02  0.39802216576E+02  0.11498175290E+03  0.13026487351E+03  0.00000000000E+00 0. -1.
        5    1    4    4  501    0 -0.32139967506E+02 -0.16726252074E+02  0.37152536478E+03  0.37331746770E+03  0.46999998093E+01 0. -1.
        5    1    3    3  502    0  0.52612672256E+01 -0.45034329163E+02  0.66443491203E+03  0.66599670724E+03  0.46999998093E+01 0. -1.
       -5    1    3    3    0  502 -0.52017332975E+02  0.57005679736E+02  0.46889482606E+03  0.47522615496E+03  0.46999998093E+01 0. -1.
</event>
<event>
10   0  0.1583500E-03  0.1763231E+03  0.7818609E-02  0.1185462E+00
        2   -1    0    0  503    0  0.00000000000E+00  0.00000000000E+00  0.22490389834E+03  0.22490389836E+03  0.00000000000E+00 0. -1.
       21   -1    0    0  501  503  0.00000000000E+00  0.00000000000E+00 -0.15127317613E+03  0.15127317613E+03  0.25500000920E-02 0. -1.
       25    2    1    2    0    0  0.29521349661E+02  0.19905381413E+01  0.13794432784E+03  0.18849101133E+03  0.12499900577E+03 0.  0.
        6    2    1    2  501    0 -0.29521349661E+02 -0.19905381413E+01 -0.64313605633E+02  0.18768606316E+03  0.17382274335E+03 0.  0.
       24    2    4    4    0    0 -0.51114147422E+02 -0.27151416446E+02  0.19465116249E+02  0.97462546541E+02  0.75961844014E+02 0.  0.
      -11    1    5    5    0    0  0.12581813011E+02  0.16386878149E+01  0.24281360909E+02  0.27396565556E+02  0.51099999109E-03 0.  1.
       12    1    5    5    0    0 -0.63695960433E+02 -0.28790104261E+02 -0.48162446598E+01  0.70065980985E+02  0.00000000000E+00 0. -1.
        5    1    4    4  501    0  0.21592797761E+02  0.25160878305E+02 -0.83778721882E+02  0.90223516616E+02  0.46999998093E+01 0. -1.
        5    1    3    3  502    0  0.57397193634E+02  0.15680876958E+01  0.11273412511E+02  0.58703292616E+02  0.46999998093E+01 0.  1.
       -5    1    3    3    0  502 -0.27875843973E+02  0.42245044546E+00  0.12667091533E+03  0.12978771872E+03  0.46999998093E+01 0.  1.
</event>
<event>
10   0  0.1583500E-03  0.1894506E+03  0.7818609E-02  0.1170139E+00
        2   -1    0    0  503    0  0.00000000000E+00  0.00000000000E+00  0.28043748479E+04  0.28043748479E+04  0.00000000000E+00 0.  1.
       21   -1    0    0  501  503  0.00000000000E+00  0.00000000000E+00 -0.14410196218E+02  0.14410196218E+02  0.25500000920E-02 0.  1.
       25    2    1    2    0    0 -0.17702589400E+02  0.73999374115E+02  0.20407043923E+04  0.20459445252E+04  0.12500117887E+03 0.  0.
        6    2    1    2  501    0  0.17702589400E+02 -0.73999374115E+02  0.74926025947E+03  0.77284051892E+03  0.17349997763E+03 0.  0.
       24    2    4    4    0    0  0.63645503028E+02 -0.63461081830E+02  0.33419008029E+03  0.35507605112E+03  0.79485428575E+02 0.  0.
      -11    1    5    5    0    0  0.19819728765E+02 -0.46664519265E+02  0.27450482524E+03  0.27914744864E+03  0.51099999109E-03 0.  1.
       12    1    5    5    0    0  0.43825774263E+02 -0.16796562565E+02  0.59685255052E+02  0.75928602479E+02  0.00000000000E+00 0. -1.
        5    1    4    4  501    0 -0.45942913628E+02 -0.10538292285E+02  0.41507017918E+03  0.41776446780E+03  0.46999998093E+01 0. -1.
        5    1    3    3  502    0  0.44877472294E+02  0.12818087380E+02  0.37289093168E+03  0.37582978568E+03  0.46999998093E+01 0. -1.
       -5    1    3    3    0  502 -0.62580061694E+02  0.61181286735E+02  0.16678134606E+04  0.16701147395E+04  0.46999998093E+01 0. -1.
</event>
<event>
10   0  0.1583500E-03  0.2354791E+03  0.7818609E-02  0.1130039E+00
        4   -1    0    0  503    0  0.00000000000E+00  0.00000000000E+00  0.34933674019E+03  0.34933904870E+03  0.00000000000E+00 0.  1.
       21   -1    0    0  501  503  0.00000000000E+00  0.00000000000E+00 -0.14247494794E+03  0.14247494794E+03  0.12699999809E+01 0.  1.
       25    2    1    2    0    0  0.11902503593E+03  0.95178736172E+02  0.15486696418E+03  0.25066282583E+03  0.12498849811E+03 0.  0.
        6    2    1    2  501    0 -0.11902503593E+03 -0.95178736172E+02  0.51994828072E+02  0.24115117081E+03  0.17951176574E+03 0.  0.
       24    2    4    4    0    0 -0.69543359865E+02  0.14587634264E+02 -0.15371693860E+02  0.10310251772E+03  0.73107880646E+02 0.  0.
      -11    1    5    5    0    0 -0.40693450535E+02 -0.27926782843E+02 -0.15474440531E+02  0.51723499750E+02  0.51099999109E-03 0.  1.
       12    1    5    5    0    0 -0.28849909330E+02  0.42514417107E+02  0.10274667129E+00  0.51379017966E+02  0.00000000000E+00 0. -1.
        5    1    4    4  501    0 -0.49481676066E+02 -0.10976637044E+03  0.67366521932E+02  0.13804865309E+03  0.46999998093E+01 0. -1.
        5    1    3    3  502    0  0.90846020203E+02  0.10058567292E+02  0.28908714922E+02  0.95979049585E+02  0.46999998093E+01 0.  1.
       -5    1    3    3    0  502  0.28179015728E+02  0.85120168880E+02  0.12595824926E+03  0.15468377624E+03  0.46999998093E+01 0.  1.
</event>
<event>
10   0  0.1583500E-03  0.1714644E+03  0.7818609E-02  0.1190455E+00
        2   -1    0    0  503    0  0.00000000000E+00  0.00000000000E+00  0.25922934629E+03  0.25922934630E+03  0.00000000000E+00 0. -1.
       21   -1    0    0  501  503  0.00000000000E+00  0.00000000000E+00 -0.85832625870E+02  0.85832625870E+02  0.25500000920E-02 0. -1.
       25    2    1    2    0    0  0.35555645318E+01 -0.33099254269E+00  0.54491569586E+02  0.13640324688E+03  0.12499505193E+03 0.  0.
        6    2    1    2  501    0 -0.35555645318E+01  0.33099254269E+00  0.11890515083E+03  0.20865872529E+03  0.17142717740E+03 0.  0.
       24    2    4    4    0    0  0.25871898992E+02  0.41614983234E+02  0.12540961783E+03  0.15732899135E+03  0.81385977221E+02 0.  0.
      -13    1    5    5    0    0 -0.24782341739E+02  0.22598530350E+02  0.79807895566E+02  0.86568870819E+02  0.10565999895E+00 0.  1.
       14    1    5    5    0    0  0.50654240732E+02  0.19016452884E+02  0.45601722268E+02  0.70760120535E+02  0.00000000000E+00 0. -1.
        5    1    4    4  501    0 -0.29427463524E+02 -0.41283990691E+02 -0.65044670017E+01  0.51329733937E+02  0.46999998093E+01 0. -1.
        5    1    3    3  502    0  0.82523077056E+01  0.45951367368E+02  0.72448871011E+02  0.86316612853E+02  0.46999998093E+01 0.  1.
       -5    1    3    3    0  502 -0.46967431738E+01 -0.46282359911E+02 -0.17957301425E+02  0.50086634026E+02  0.46999998093E+01 0.  1.
</event>
<event>
10   0  0.1583500E-03  0.2022794E+03  0.7818609E-02  0.1156554E+00
       21   -1    0    0  501  503  0.00000000000E+00  0.00000000000E+00  0.16534063105E+03  0.16534063105E+03  0.00000000000E+00 0.  1.
       -2   -1    0    0    0  501  0.00000000000E+00  0.00000000000E+00 -0.23230548772E+03  0.23230548773E+03  0.25500000920E-02 0.  1.
       25    2    1    2    0    0  0.27822471596E+02  0.10346777031E+03 -0.10008839117E+03  0.19267268063E+03  0.12500162557E+03 0.  0.
       -6    2    1    2    0  503 -0.27822471596E+02 -0.10346777031E+03  0.33123534495E+02  0.20497343816E+03  0.17157293607E+03 0.  0.
      -24    2    4    4    0    0 -0.24620044891E+02  0.14789807661E+02 -0.47892711003E+01  0.80656982646E+02  0.75217861647E+02 0.  0.
       11    1    5    5    0    0  0.15163416104E+02  0.32868447771E+02 -0.71409745999E+01  0.36895224154E+02  0.51099999109E-03 0. -1.
      -12    1    5    5    0    0 -0.39783460995E+02 -0.18078640111E+02  0.23517034996E+01  0.43761758492E+02  0.00000000000E+00 0.  1.
       -5    1    4    4    0  503 -0.32024267051E+01 -0.11825757797E+03  0.37912805595E+02  0.12431645551E+03  0.46999998093E+01 0.  1.
        5    1    3    3  502    0 -0.13347784317E+02 -0.25431504471E+02 -0.14765422833E+02  0.32634835307E+02  0.46999998093E+01 0. -1.
       -5    1    3    3    0  502  0.41170255914E+02  0.12889927478E+03 -0.85322968334E+02  0.16003784532E+03  0.46999998093E+01 0. -1.
</event>
<event>
10   0  0.1583500E-03  0.2561294E+03  0.7818609E-02  0.1114178E+00
       21   -1    0    0  501  503  0.00000000000E+00  0.00000000000E+00  0.55599338107E+02  0.55599338107E+02  0.00000000000E+00 0.  1.
        2   -1    0    0  503    0  0.00000000000E+00  0.00000000000E+00 -0.13174399798E+04  0.13174399798E+04  0.25500000920E-02 0. -1.
       25    2    1    2    0    0 -0.18434328063E+03 -0.45831035999E+02 -0.90915307083E+03  0.93716001419E+03  0.12500662796E+03 0.  0.
        6    2    1    2  501    0  0.18434328063E+03  0.45831035999E+02 -0.35268757086E+03  0.43587930371E+03  0.17181186161E+03 0.  0.
       24    2    4    4    0    0  0.82695972696E+02 -0.21436403804E+02 -0.95382653778E+02  0.15112503417E+03  0.80266942160E+02 0.  0.
      -13    1    5    5    0    0  0.97158130748E+02 -0.28324804929E+02 -0.82378220314E+02  0.13049206601E+03  0.10565999895E+00 0.  1.
       14    1    5    5    0    0 -0.14462158052E+02  0.68884011249E+01 -0.13004433464E+02  0.20632968165E+02  0.00000000000E+00 0. -1.
        5    1    4    4  501    0  0.10164730793E+03  0.67267439803E+02 -0.25730491708E+03  0.28475426954E+03  0.46999998093E+01 0. -1.
        5    1    3    3  502    0 -0.18320238165E+02 -0.50382853508E+02 -0.34063981194E+03  0.34486466118E+03  0.46999998093E+01 0. -1.
       -5    1    3    3    0  502 -0.16602304246E+03  0.45518175087E+01 -0.56851325889E+03  0.59229535301E+03  0.46999998093E+01 0. -1.
</event>
<event>
10   0  0.1583500E-03  0.1799378E+03  0.7818609E-02  0.1180421E+00
        4   -1    0    0  503    0  0.00000000000E+00  0.00000000000E+00  0.17534810421E+03  0.17535270329E+03  0.00000000000E+00 0. -1.
       21   -1    0    0  501  503  0.00000000000E+00  0.00000000000E+00 -0.33771009049E+03  0.33771009049E+03  0.12699999809E+01 0. -1.
       25    2    1    2    0    0 -0.21590306909E+02 -0.47037754933E+02  0.11827024505E+03  0.17969802457E+03  0.12499934971E+03 0.  0.
        6    2    1    2  501    0  0.21590306909E+02  0.47037754933E+02 -0.28063223133E+03  0.33336476921E+03  0.17233377019E+03 0.  0.
       24    2    4    4    0    0  0.57224535464E+02 -0.34724438985E+01 -0.24015692344E+03  0.25932816355E+03  0.79303487983E+02 0.  0.
      -15    1    5    5    0    0 -0.14101667755E+02  0.18395232763E+02 -0.55824259280E+02  0.60471044929E+02  0.17769999504E+01 0.  1.
       16    1    5    5    0    0  0.71326203219E+02 -0.21867676661E+02 -0.18433266416E+03  0.19885711862E+03  0.00000000000E+00 0. -1.
        5    1    4    4  501    0 -0.35634228555E+02  0.50510198831E+02 -0.40475307884E+02  0.74036605657E+02  0.46999998093E+01 0. -1.
        5    1    3    3  502    0 -0.45955839846E+02  0.28445061840E+02  0.61709461223E+02  0.82165737152E+02  0.46999998093E+01 0. -1.
       -5    1    3    3    0  502  0.24365532937E+02 -0.75482816773E+02  0.56560783827E+02  0.97532287416E+02  0.46999998093E+01 0. -1.
</event>
<event>
10   0  0.1583500E-03  0.2094020E+03  0.7818609E-02  0.1147057E+00
       21   -1    0    0  501  503  0.00000000000E+00  0.00000000000E+00  0.54159475799E+02  0.54159475799E+02  0.00000000000E+00 0. -1.
        2   -1    0    0  503    0  0.00000000000E+00  0.00000000000E+00 -0.11133638735E+04  0.11133638735E+04  0.25500000920E-02 0.  1.
       25    2    1    2    0    0 -0.13672097800E+03  0.13204170248E+02 -0.16276009587E+03  0.24694657894E+03  0.12499915243E+03 0.  0.
        6    2    1    2  501    0  0.13672097800E+03 -0.13204170248E+02 -0.89644430184E+03  0.92057677037E+03  0.15805767269E+03 0.  0.
       24    2    4    4    0    0  0.44019611885E+02 -0.59608357349E+02 -0.45419345474E+03  0.46631385792E+03  0.75273084616E+02 0.  0.
      -11    1    5    5    0    0  0.64165522364E+02 -0.50638318661E+02 -0.38888344169E+03  0.39738115808E+03  0.51099999109E-03 0.  1.
       12    1    5    5    0    0 -0.20145910479E+02 -0.89700386885E+01 -0.65310013046E+02  0.68932699840E+02  0.00000000000E+00 0. -1.
        5    1    4    4  501    0  0.92701366112E+02  0.46404187101E+02 -0.44225084710E+03  0.45426291244E+03  0.46999998093E+01 0. -1.
        5    1    3    3  502    0  0.44364105103E+00 -0.20130772266E+02 -0.81331715277E+02  0.83918905602E+02  0.46999998093E+01 0.  1.
       -5    1    3    3    0  502 -0.13716461905E+03  0.33334942514E+02 -0.81428380589E+02  0.16302767334E+03  0.46999998093E+01 0.  1.
</event>
<event>
10   0  0.1583500E-03  0.1898795E+03  0.7818609E-02  0.1168865E+00
       21   -1    0    0  501  503  0.00000000000E+00  0.00000000000E+00  0.12110149534E+03  0.12110149534E+03  0.00000000000E+00 0.  1.
       -4   -1    0    0    0  501  0.00000000000E+00  0.00000000000E+00 -0.31490601636E+03  0.31490857727E+03  0.12699999809E+01 0. -1.
       25    2    1    2    0    0 -0.72568350717E+02  0.38844751491E+02 -0.19540293828E+03  0.24612385006E+03  0.12497824224E+03 0.  0.
       -6    2    1    2    0  503  0.72568350717E+02 -0.38844751491E+02  0.15984172615E+01  0.18988622256E+03  0.17111149096E+03 0.  0.
      -24    2    4    4    0    0  0.38720091848E+02 -0.99267646902E+01 -0.67240170492E+02  0.10777169430E+03  0.74133065464E+02 0.  0.
       15    1    5    5    0    0 -0.17953405404E+02 -0.19255186675E+02 -0.26162857322E+02  0.37158307437E+02  0.17769999504E+01 0. -1.
      -16    1    5    5    0    0  0.56673497251E+02  0.93284219844E+01 -0.41077313170E+02  0.70613386866E+02  0.00000000000E+00 0.  1.
       -5    1    4    4    0  503  0.33848258869E+02 -0.28917986801E+02  0.68838587754E+02  0.82114528260E+02  0.46999998093E+01 0.  1.
        5    1    3    3  502    0  0.32512460455E+02 -0.46176417126E+01 -0.26519962261E+02  0.42470944142E+02  0.46999998093E+01 0. -1.
       -5    1    3    3    0  502 -0.10508081117E+03  0.43462393204E+02 -0.16888297602E+03  0.20365290591E+03  0.46999998093E+01 0. -1.
</event>
<event>
10   0  0.1583500E-03  0.1855941E+03  0.7818609E-02  0.1174220E+00
       21   -1    0    0  501  503  0.00000000000E+00  0.00000000000E+00  0.40061633574E+03  0.40061633574E+03  0.00000000000E+00 0.  1.
        2   -1    0    0  503    0  0.00000000000E+00  0.00000000000E+00 -0.31607548369E+03  0.31607548370E+03  0.25500000920E-02 0. -1.
       25    2    1    2    0    0 -0.11637334936E+02  0.65993635322E+02 -0.27649298130E+03  0.31074772150E+03  0.12500076094E+03 0.  0.
        6    2    1    2  501    0  0.11637334936E+02 -0.65993635322E+02  0.36103383336E+03  0.40594409795E+03  0.17307395634E+03 0.  0.
       24    2    4    4    0    0  0.82590790847E+01 -0.97897636108E+02  0.34729989120E+03  0.37073061979E+03  0.84686589719E+02 0.  0.
      -15    1    5    5    0    0  0.39771705934E+02 -0.24115508595E+02  0.91730494143E+02  0.10286392775E+03  0.17769999504E+01 0.  1.
       16    1    5    5    0    0 -0.31512626849E+02 -0.73782127514E+02  0.25556939706E+03  0.26786669204E+03  0.00000000000E+00 0. -1.
        5    1    4    4  501    0  0.33782558515E+01  0.31904000786E+02  0.13733942158E+02  0.35213478161E+02  0.46999998093E+01 0. -1.
        5    1    3    3  502    0 -0.44711832545E+02 -0.20275416908E+02 -0.96058049171E+02  0.10797906885E+03  0.46999998093E+01 0.  1.
       -5    1    3    3    0  502  0.33074497608E+02  0.86269052230E+02 -0.18043493213E+03  0.20276865265E+03  0.46999998093E+01 0.  1.
</event>
<event>
10   0  0.1583500E-03  0.2813442E+03  0.7818609E-02  0.1098647E+00
        2   -1    0    0  503    0  0.00000000000E+00  0.00000000000E+00  0.49015226106E+03  0.49015226107E+03  0.00000000000E+00 0. -1.
       21   -1    0    0  501  503  0.00000000000E+00  0.00000000000E+00 -0.15474425772E+03  0.15474425772E+03  0.25500000920E-02 0.  1.
       25    2    1    2    0    0  0.22280627541E+03  0.43895517633E+01  0.87988901063E+02  0.27023567285E+03  0.12499347042E+03 0.  0.
        6    2    1    2  501    0 -0.22280627541E+03 -0.43895517633E+01  0.24741910228E+03  0.37466084594E+03  0.17173419224E+03 0.  0.
       24    2    4    4    0    0 -0.15453095497E+03  0.47691881845E+02  0.21808197313E+03  0.28379417300E+03  0.82613884945E+02 0.  0.
      -15    1    5    5    0    0 -0.78950786016E+01 -0.65505318532E+01 -0.48631703932E+01  0.11491296219E+02  0.17769999504E+01 0.  1.
       16    1    5    5    0    0 -0.14663587637E+03  0.54242413698E+02  0.22294514352E+03  0.27230287678E+03  0.00000000000E+00 0. -1.
        5    1    4    4  501    0 -0.68275320431E+02 -0.52081433609E+02  0.29337129150E+02  0.90866672942E+02  0.46999998093E+01 0. -1.
        5    1    3    3  502    0  0.18123181253E+03 -0.19081840209E+02  0.11465130366E+03  0.21535110384E+03  0.46999998093E+01 0.  1.
       -5    1    3    3    0  502  0.41574462879E+02  0.23471391972E+02 -0.26662402597E+02  0.54884569009E+02  0.46999998093E+01 0.  1.
</event>
<event>
10   0  0.1583500E-03  0.2245690E+03  0.7818609E-02  0.1138671E+00
       21   -1    0    0  501  503  0.00000000000E+00  0.00000000000E+00  0.36822916155E+03  0.36822916155E+03  0.00000000000E+00 0. -1.
       -2   -1    0    0    0  501  0.00000000000E+00  0.00000000000E+00 -0.11536716981E+03  0.11536716984E+03  0.25500000920E-02 0.  1.
       25    2    1    2    0    0 -0.67441125509E+01  0.13504484014E+03  0.82789328858E+02  0.20189445555E+03  0.12499882522E+03 0.  0.
       -6    2    1    2    0  503  0.67441125509E+01 -0.13504484014E+03  0.17007266288E+03  0.28170187584E+03  0.17930043026E+03 0.  0.
      -24    2    4    4    0    0 -0.59664155431E+02 -0.95696697843E+02  0.76214585526E+02  0.16008870616E+03  0.84273728827E+02 0.  0.
       15    1    5    5    0    0 -0.99878202042E+01 -0.37082764370E+02  0.73804838731E+02  0.83217786048E+02  0.17769999504E+01 0. -1.
      -16    1    5    5    0    0 -0.49676335226E+02 -0.58613933473E+02  0.24097467953E+01  0.76870920108E+02  0.00000000000E+00 0.  1.
       -5    1    4    4    0  503  0.66408267981E+02 -0.39348142297E+02  0.93858077355E+02  0.12161316969E+03  0.46999998093E+01 0.  1.
        5    1    3    3  502    0 -0.61435004702E+01  0.77730995782E+02  0.11265864076E+03  0.13709088095E+03  0.46999998093E+01 0. -1.
       -5    1    3    3    0  502 -0.60061208064E+00  0.57313844357E+02 -0.29869311897E+02  0.64803574603E+02  0.46999998093E+01 0. -1.
</event>
<event>
10   0  0.1583500E-03  0.1973149E+03  0.7818609E-02  0.1160993E+00
       21   -1    0    0  501  503  0.00000000000E+00  0.00000000000E+00  0.25059992249E+03  0.25059992249E+03  0.00000000000E+00 0.  1.
        2   -1    0    0  503    0  0.00000000000E+00  0.00000000000E+00 -0.11912347549E+04  0.11912347549E+04  0.25500000920E-02 0.  1.
       25    2    1    2    0    0  0.26228990341E+02  0.96235435736E+02 -0.11459615926E+04  0.11570676984E+04  0.12501387118E+03 0.  0.
        6    2    1    2  501    0 -0.26228990341E+02 -0.96235435736E+02  0.20532676019E+03  0.28476697898E+03  0.17024668820E+03 0.  0.
       24    2    4    4    0    0 -0.78803443931E+02 -0.87309159950E+02  0.13856109690E+03  0.19918955578E+03  0.81513369279E+02 0.  0.
      -13    1    5    5    0    0 -0.62091638784E+02 -0.10403896888E+02  0.47720247894E+02  0.78999024680E+02  0.10565999895E+00 0.  1.
       14    1    5    5    0    0 -0.16711805147E+02 -0.76905263062E+02  0.90840849010E+02  0.12019053110E+03  0.00000000000E+00 0. -1.
        5    1    4    4  501    0  0.52574453590E+02 -0.89262757861E+01  0.66765663282E+02  0.85577423199E+02  0.46999998093E+01 0. -1.
        5    1    3    3  502    0  0.21184569619E+02  0.14951881741E+02 -0.84014186488E+03  0.84055504750E+03  0.46999998093E+01 0.  1.
       -5    1    3    3    0  502  0.50444207219E+01  0.81283553996E+02 -0.30581972769E+03  0.31651265089E+03  0.46999998093E+01 0.  1.
</event>
<event>
10   0  0.1583500E-03  0.2854781E+03  0.7818609E-02  0.1096364E+00
       21   -1    0    0  501  503  0.00000000000E+00  0.00000000000E+00  0.71882567682E+02  0.71882567682E+02  0.00000000000E+00 0. -1.
        2   -1    0    0  503    0  0.00000000000E+00  0.00000000000E+00 -0.10336781699E+04  0.10336781699E+04  0.25500000920E-02 0.  1.
       25    2    1    2    0    0  0.46675415825E+01 -0.22743853287E+03 -0.44607377843E+03  0.51609763424E+03  0.12499952034E+03 0.  0.
        6    2    1    2  501    0 -0.46675415825E+01  0.22743853287E+03 -0.51572182379E+03  0.58946310335E+03  0.17247515327E+03 0.  0.
       24    2    4    4    0    0  0.65887281638E+01  0.67082375345E+02 -0.31649899884E+03  0.33343063501E+03  0.80379821311E+02 0.  0.
      -11    1    5    5    0    0  0.34870753291E+02  0.15094019705E+02 -0.67159030003E+02  0.77163036339E+02  0.51099999109E-03 0.  1.
       12    1    5    5    0    0 -0.28282025127E+02  0.51988355641E+02 -0.24933996883E+03  0.25626759867E+03  0.00000000000E+00 0. -1.
        5    1    4    4  501    0 -0.11256269746E+02  0.16035615753E+03 -0.19922282495E+03  0.25603246834E+03  0.46999998093E+01 0. -1.
        5    1    3    3  502    0 -0.43376582037E+02 -0.31497140369E+02 -0.60945888880E+02  0.81302454392E+02  0.46999998093E+01 0.  1.
       -5    1    3    3    0  502  0.48044123619E+02 -0.19594139250E+03 -0.38512788955E+03  0.43479517985E+03  0.46999998093E+01 0.  1.
</event>
<event>
10   0  0.1583500E-03  0.3646844E+03  0.7818609E-02  0.1058688E+00
        2   -1    0    0  503    0  0.00000000000E+00  0.00000000000E+00  0.52598164546E+03  0.52598164546E+03  0.00000000000E+00 0.  1.
       21   -1    0    0  501  503  0.00000000000E+00  0.00000000000E+00 -0.24167772394E+03  0.24167772394E+03  0.25500000920E-02 0. -1.
       25    2    1    2    0    0 -0.26183668022E+03  0.18721105952E+03  0.17398454220E+03  0.38665405186E+03  0.12499722787E+03 0.  0.
        6    2    1    2  501    0  0.26183668022E+03 -0.18721105952E+03  0.11031937931E+03  0.38100531755E+03  0.17143004005E+03 0.  0.
       24    2    4    4    0    0  0.23548328517E+03 -0.18807119051E+03  0.13968097281E+03  0.34126321863E+03  0.78272983395E+02 0.  0.
      -11    1    5    5    0    0  0.11570701480E+02 -0.18531030257E+02 -0.88239228122E+01  0.23561447943E+02  0.51099999109E-03 0.  1.
       12    1    5    5    0    0  0.22391258369E+03 -0.16954016026E+03  0.14850489562E+03  0.31770177069E+03  0.00000000000E+00 0. -1.
        5    1    4    4  501    0  0.26353395051E+02  0.86013099204E+00 -0.29361593492E+02  0.39742098921E+02  0.46999998093E+01 0. -1.
        5    1    3    3  502    0 -0.12274890037E+03  0.43735695173E+02  0.14995237565E+02  0.13125185988E+03  0.46999998093E+01 0.  1.
       -5    1    3    3    0  502 -0.13908777985E+03  0.14347536435E+03  0.15898930463E+03  0.25540219197E+03  0.46999998093E+01 0.  1.
</event>
<event>
10   0  0.1583500E-03  0.2196776E+03  0.7818609E-02  0.1141111E+00
       21   -1    0    0  501  503  0.00000000000E+00  0.00000000000E+00  0.44825054791E+02  0.44825054791E+02  0.00000000000E+00 0. -1.
        2   -1    0    0  503    0  0.00000000000E+00  0.00000000000E+00 -0.11744568103E+04  0.11744568103E+04  0.25500000920E-02 0. -1.
       25    2    1    2    0    0  0.12751362128E+03  0.50141015145E+02 -0.81312632609E+03  0.83401062897E+03  0.12500184816E+03 0.  0.
        6    2    1    2  501    0 -0.12751362128E+03 -0.50141015145E+02 -0.31650542945E+03  0.38527123616E+03  0.17171020216E+03 0.  0.
       24    2    4    4    0    0 -0.13031390742E+03  0.74288082937E+01 -0.27517900518E+03  0.31419318389E+03  0.77181411296E+02 0.  0.
      -15    1    5    5    0    0 -0.15211954479E+02  0.17285540396E+02 -0.11141242354E+03  0.11378083896E+03  0.17769999504E+01 0.  1.
       16    1    5    5    0    0 -0.11510195294E+03 -0.98567321028E+01 -0.16376658164E+03  0.20041234493E+03  0.00000000000E+00 0. -1.
        5    1    4    4  501    0  0.28002861384E+01 -0.57569823439E+02 -0.41326424270E+02  0.71078052270E+02  0.46999998093E+01 0. -1.
        5    1    3    3  502    0  0.26568949176E+02 -0.15047557057E+02 -0.45869017145E+03  0.45972937845E+03  0.46999998093E+01 0. -1.
       -5    1    3    3    0  502  0.10094467210E+03  0.65188572203E+02 -0.35443615465E+03  0.37428125052E+03  0.46999998093E+01 0. -1.
</event>
<event>
10   0  0.1583500E-03  0.2142345E+03  0.7818609E-02  0.1145713E+00
        2   -1    0    0  503    0  0.00000000000E+00  0.00000000000E+00  0.44942079561E+03  0.44942079561E+03  0.00000000000E+00 0.  1.
       21   -1    0    0  501  503  0.00000000000E+00  0.00000000000E+00 -0.10852664469E+03  0.10852664469E+03  0.25500000920E-02 0.  1.
       25    2    1    2    0    0 -0.48568685803E+02  0.11868618028E+03  0.28491395166E+03  0.33651980460E+03  0.12499716961E+03 0.  0.
        6    2    1    2  501    0  0.48568685803E+02 -0.11868618028E+03  0.55980199253E+02  0.22142763571E+03  0.17161319447E+03 0.  0.
       24    2    4    4    0    0  0.78417841785E+02 -0.13909795129E+03  0.48154894893E+02  0.18413235590E+03  0.78027127490E+02 0.  0.
      -11    1    5    5    0    0  0.69019912060E+02 -0.10861324618E+03  0.28453099249E+01  0.12871938974E+03  0.51099999109E-03 0.  1.
       12    1    5    5    0    0  0.93979297242E+01 -0.30484705114E+02  0.45309584968E+02  0.55412966163E+02  0.00000000000E+00 0. -1.
        5    1    4    4  501    0 -0.29849155982E+02  0.20411771019E+02  0.78253043600E+01  0.37295279801E+02  0.46999998093E+01 0. -1.
        5    1    3    3  502    0 -0.70617731915E+02  0.15899552753E+02  0.13663024651E+03  0.15469186823E+03  0.46999998093E+01 0.  1.
       -5    1    3    3    0  502  0.22049046112E+02  0.10278662752E+03  0.14828370515E+03  0.18182793637E+03  0.46999998093E+01 0.  1.
</event>
<event>
10   0  0.1583500E-03  0.2307737E+03  0.7818609E-02  0.1132369E+00
        2   -1    0    0  503    0  0.00000000000E+00  0.00000000000E+00  0.20189773295E+04  0.20189773295E+04  0.00000000000E+00 0.  1.
       21   -1    0    0  501  503  0.00000000000E+00  0.00000000000E+00 -0.22801526983E+02  0.22801526983E+02  0.25500000920E-02 0.  1.
       25    2    1    2    0    0  0.12908347668E+03 -0.82643783978E+02  0.97358868129E+03  0.99347502787E+03  0.12500068675E+03 0.  0.
        6    2    1    2  501    0 -0.12908347668E+03  0.82643783978E+02  0.10225871212E+04  0.10483038286E+04  0.17252233942E+03 0.  0.
       24    2    4    4    0    0 -0.32909391750E+02 -0.19680055359E+02  0.40961010069E+03  0.41942980274E+03  0.81673693414E+02 0.  0.
      -15    1    5    5    0    0  0.21902979641E+02 -0.27105576862E+02  0.16273954718E+03  0.16643848942E+03  0.17769999504E+01 0.  1.
       16    1    5    5    0    0 -0.54812371391E+02  0.74255215039E+01  0.24687055351E+03  0.25299131332E+03  0.00000000000E+00 0. -1.
        5    1    4    4  501    0 -0.96174084931E+02  0.10232383934E+03  0.61297702050E+03  0.62887402583E+03  0.46999998093E+01 0. -1.
        5    1    3    3  502    0  0.57757070857E+02 -0.25657200132E+02  0.73886347929E+03  0.74157636301E+03  0.46999998093E+01 0.  1.
       -5    1    3    3    0  502  0.71326405824E+02 -0.56986583846E+02  0.23472520200E+03  0.25189866486E+03  0.46999998093E+01 0.  1.
</event>
<event>
10   0  0.1583500E-03  0.4879793E+03  0.7818609E-02  0.1017950E+00
        4   -1    0    0  503    0  0.00000000000E+00  0.00000000000E+00  0.48961026784E+03  0.48961191496E+03  0.00000000000E+00 0. -1.
       21   -1    0    0  501  503  0.00000000000E+00  0.00000000000E+00 -0.11064707284E+04  0.11064707284E+04  0.12699999809E+01 0.  1.
       25    2    1    2    0    0 -0.12133082235E+03  0.44036649478E+03  0.29777846243E+03  0.55941095993E+03  0.12499916490E+03 0.  0.
        6    2    1    2  501    0  0.12133082235E+03 -0.44036649478E+03 -0.91463892301E+03  0.10366716835E+04  0.17169741299E+03 0.  0.
       24    2    4    4    0    0  0.15163896192E+03 -0.37008866998E+03 -0.72017400681E+03  0.82763520432E+03  0.79808727071E+02 0.  0.
      -13    1    5    5    0    0  0.83701686464E+02 -0.24331292758E+03 -0.38690329789E+03  0.46465183323E+03  0.10565999895E+00 0.  1.
       14    1    5    5    0    0  0.67937275456E+02 -0.12677574240E+03 -0.33327070893E+03  0.36298337109E+03  0.00000000000E+00 0. -1.
        5    1    4    4  501    0 -0.30308139569E+02 -0.70277824793E+02 -0.19446491620E+03  0.20903647915E+03  0.46999998093E+01 0. -1.
        5    1    3    3  502    0  0.20714303716E+02  0.71908561756E+02  0.23450383587E+02  0.78561658083E+02  0.46999998093E+01 0.  1.
       -5    1    3    3    0  502 -0.14204512607E+03  0.36845793302E+03  0.27432807884E+03  0.48084930184E+03  0.46999998093E+01 0.  1.
</event>
<event>
10   0  0.1583500E-03  0.2053588E+03  0.7818609E-02  0.1153742E+00
        2   -1    0    0  503    0  0.00000000000E+00  0.00000000000E+00  0.12046008724E+04  0.12046008724E+04  0.00000000000E+00 0.  1.
       21   -1    0    0  501  503  0.00000000000E+00  0.00000000000E+00 -0.45882353814E+02  0.45882353814E+02  0.25500000920E-02 0.  1.
       25    2    1    2    0    0 -0.15671402014E+01  0.11235790443E+03  0.92159187353E+03  0.93679344440E+03  0.12499448586E+03 0.  0.
        6    2    1    2  501    0  0.15671402014E+01 -0.11235790443E+03  0.23712664505E+03  0.31368978181E+03  0.17188798330E+03 0.  0.
       24    2    4    4    0    0  0.35289735898E+02  0.65949104006E+00  0.82177121132E+02  0.11890377076E+03  0.78353219946E+02 0.  0.
      -11    1    5    5    0    0  0.34934702772E+02 -0.26658021368E+02  0.80277375387E+02  0.91517979437E+02  0.51099999109E-03 0.  1.
       12    1    5    5    0    0  0.35503312601E+00  0.27317512408E+02  0.18997457453E+01  0.27385791326E+02  0.00000000000E+00 0. -1.
        5    1    4    4  501    0 -0.33722595697E+02 -0.11301739547E+03  0.15494952392E+03  0.19478601105E+03  0.46999998093E+01 0. -1.
        5    1    3    3  502    0  0.28193272221E+02  0.75008674295E+02  0.23124024874E+03  0.24477602916E+03  0.46999998093E+01 0. -1.
       -5    1    3    3    0  502 -0.29760412423E+02  0.37349230137E+02  0.69035162479E+03  0.69201741524E+03  0.46999998093E+01 0. -1.
</event>
<event>
10   0  0.1583500E-03  0.1846274E+03  0.7818609E-02  0.1173460E+00
        2   -1    0    0  503    0  0.00000000000E+00  0.00000000000E+00  0.63931134595E+03  0.63931134595E+03  0.00000000000E+00 0.  1.
       21   -1    0    0  501  503  0.00000000000E+00  0.00000000000E+00 -0.42904793987E+02  0.42904793987E+02  0.25500000920E-02 0.  1.
       25    2    1    2    0    0  0.47739242227E+02 -0.59853837175E+02  0.26858582562E+03  0.30597992389E+03  0.12499540403E+03 0.  0.
        6    2    1    2  501    0 -0.47739242227E+02  0.59853837175E+02  0.32782072635E+03  0.37623621605E+03  0.16800519211E+03 0.  0.
       24    2    4    4    0    0  0.17189451852E+02  0.76425012848E+02  0.15600251711E+03  0.19175335452E+03  0.79349251913E+02 0.  0.
      -15    1    5    5    0    0 -0.31764420722E+02  0.32483278530E+02  0.57497505566E+02  0.73302542131E+02  0.17769999504E+01 0.  1.
       16    1    5    5    0    0  0.48953872574E+02  0.43941734318E+02  0.98505011546E+02  0.11845081238E+03  0.00000000000E+00 0. -1.
        5    1    4    4  501    0 -0.64928694078E+02 -0.16571175673E+02  0.17181820924E+03  0.18448286154E+03  0.46999998093E+01 0. -1.
        5    1    3    3  502    0 -0.33379844233E+02 -0.22851924716E+02  0.28163384717E+02  0.49514550399E+02  0.46999998093E+01 0.  1.
       -5    1    3    3    0  502  0.81119086459E+02 -0.37001912459E+02  0.24042244090E+03  0.25646537349E+03  0.46999998093E+01 0.  1.
</event>
<event>
10   0  0.1583500E-03  0.1729324E+03  0.7818609E-02  0.1189050E+00
        4   -1    0    0  503    0  0.00000000000E+00  0.00000000000E+00  0.81063060783E+02  0.81073008600E+02  0.00000000000E+00 0.  1.
       21   -1    0    0  501  503  0.00000000000E+00  0.00000000000E+00 -0.35315241818E+03  0.35315241818E+03  0.12699999809E+01 0.  1.
       25    2    1    2    0    0 -0.13037249422E+01 -0.13472108524E+02 -0.18212664631E+02  0.12704635593E+03  0.12500351193E+03 0.  0.
        6    2    1    2  501    0  0.13037249422E+01  0.13472108524E+02 -0.25387669277E+03  0.30717907085E+03  0.17240188233E+03 0.  0.
       24    2    4    4    0    0 -0.13062893719E+02  0.68464548708E+02 -0.21118317590E+03  0.23593726718E+03  0.78803722247E+02 0.  0.
      -11    1    5    5    0    0 -0.11414143377E+02  0.31678244268E+02 -0.15944072922E+02  0.37255969865E+02  0.51099999109E-03 0.  1.
       12    1    5    5    0    0 -0.16487503416E+01  0.36786304440E+02 -0.19523910298E+03  0.19868129732E+03  0.00000000000E+00 0. -1.
        5    1    4    4  501    0  0.14366618661E+02 -0.54992440184E+02 -0.42693516871E+02  0.71241803670E+02  0.46999998093E+01 0. -1.
        5    1    3    3  502    0 -0.40015878813E+02 -0.43258815232E+02  0.22532387241E+02  0.63264477596E+02  0.46999998093E+01 0. -1.
       -5    1    3    3    0  502  0.38712153871E+02  0.29786706708E+02 -0.40745051872E+02  0.63781878337E+02  0.46999998093E+01 0. -1.
</event>
<event>
10   0  0.1583500E-03  0.2426881E+03  0.7818609E-02  0.1123445E+00
       21   -1    0    0  501  503  0.00000000000E+00  0.00000000000E+00  0.18756672292E+03  0.18756672292E+03  0.00000000000E+00 0.  1.
        2   -1    0    0  503    0  0.00000000000E+00  0.00000000000E+00 -0.48548678706E+03  0.48548678706E+03  0.25500000920E-02 0.  1.
       25    2    1    2    0    0  0.10247714944E+03 -0.13703931770E+03 -0.36430023866E+03  0.42145099738E+03  0.12499975423E+03 0.  0.
        6    2    1    2  501    0 -0.10247714944E+03  0.13703931770E+03  0.66380174523E+02  0.25160251260E+03  0.17209345143E+03 0.  0.
       24    2    4    4    0    0 -0.10671211383E+03  0.15418207996E+03  0.87995368097E+02  0.22329852326E+03  0.83423358021E+02 0.  0.
      -11    1    5    5    0    0 -0.93275553520E+02  0.86166166832E+02  0.24582330600E+02  0.12934151758E+03  0.51099999109E-03 0.  1.
       12    1    5    5    0    0 -0.13436560306E+02  0.68015913131E+02  0.63413037497E+02  0.93957005681E+02  0.00000000000E+00 0. -1.
        5    1    4    4  501    0  0.42349643874E+01 -0.17142762266E+02 -0.21615193573E+02  0.28303989346E+02  0.46999998093E+01 0. -1.
        5    1    3    3  502    0  0.49504765721E+02 -0.14837011930E+03 -0.28788462714E+03  0.32766455816E+03  0.46999998093E+01 0. -1.
       -5    1    3    3    0  502  0.52972383717E+02  0.11330801597E+02 -0.76415611511E+02  0.93786439224E+02  0.46999998093E+01 0. -1.
</event>
<event>
10   0  0.1583500E-03  0.2227338E+03  0.7818609E-02  0.1138168E+00
        2   -1    0    0  503    0  0.00000000000E+00  0.00000000000E+00  0.27315006710E+04  0.27315006710E+04  0.00000000000E+00 0. -1.
       21   -1    0    0  501  503  0.00000000000E+00  0.00000000000E+00 -0.22008433135E+02  0.22008433135E+02  0.25500000920E-02 0. -1.
       25    2    1    2    0    0  0.67688858764E+01  0.14429863222E+03  0.20181693460E+04  0.20271912186E+04  0.12501525695E+03 0.  0.
        6    2    1    2  501    0 -0.67688858764E+01 -0.14429863222E+03  0.69132289191E+03  0.72631788560E+03  0.16953588703E+03 0.  0.
       24    2    4    4    0    0  0.18748741302E+02 -0.10840063169E+03  0.65556313972E+03  0.66939104120E+03  0.78861420417E+02 0.  0.
      -15    1    5    5    0    0 -0.11862274776E+02 -0.54506224312E+00  0.15622810656E+02  0.19703821897E+02  0.17769999504E+01 0.  1.
       16    1    5    5    0    0  0.30611016078E+02 -0.10785556945E+03  0.63994032906E+03  0.64968721930E+03  0.00000000000E+00 0. -1.
        5    1    4    4  501    0 -0.25517627179E+02 -0.35898000526E+02  0.35759752194E+02  0.56926844404E+02  0.46999998093E+01 0. -1.
        5    1    3    3  502    0 -0.30068346172E+02  0.12557523768E+02  0.13132693181E+03  0.13539073034E+03  0.46999998093E+01 0. -1.
       -5    1    3    3    0  502  0.36837232048E+02  0.13174110845E+03  0.18868424142E+04  0.18918004882E+04  0.46999998093E+01 0. -1.
</event>
<event>
10   0  0.1583500E-03  0.1730278E+03  0.7818609E-02  0.1188611E+00
       21   -1    0    0  501  503  0.00000000000E+00  0.00000000000E+00  0.96546546820E+02  0.96546546820E+02  0.00000000000E+00 0. -1.
       -2   -1    0    0    0  501  0.00000000000E+00  0.00000000000E+00 -0.27935767701E+03  0.27935767702E+03  0.25500000920E-02 0. -1.
       25    2    1    2    0    0 -0.54223410539E+01 -0.20321656333E+02 -0.15569250397E+03  0.20076416164E+03  0.12499488513E+03 0.  0.
       -6    2    1    2    0  503  0.54223410539E+01  0.20321656333E+02 -0.27118626222E+02  0.17514006220E+03  0.17174472336E+03 0.  0.
      -24    2    4    4    0    0  0.21985234511E+02  0.46521304352E+02  0.38265130101E+02  0.10262884524E+03  0.80130377504E+02 0.  0.
       11    1    5    5    0    0  0.11340855349E+02 -0.15759777029E+02  0.34183738982E+02  0.39313020529E+02  0.51099999109E-03 0. -1.
      -12    1    5    5    0    0  0.10644379162E+02  0.62281081381E+02  0.40813911195E+01  0.63315824714E+02  0.00000000000E+00 0.  1.
       -5    1    4    4    0  503 -0.16562893457E+02 -0.26199648019E+02 -0.65383756323E+02  0.72511216961E+02  0.46999998093E+01 0.  1.
        5    1    3    3  502    0 -0.14678287448E+02 -0.52451188895E+02 -0.15773243289E+03  0.16693768215E+03  0.46999998093E+01 0. -1.
       -5    1    3    3    0  502  0.92559463937E+01  0.32129532563E+02  0.20399289203E+01  0.33826479488E+02  0.46999998093E+01 0. -1.
</event>
<event>
10   0  0.1583500E-03  0.1767826E+03  0.7818609E-02  0.1184332E+00
        2   -1    0    0  503    0  0.00000000000E+00  0.00000000000E+00  0.15949337137E+03  0.15949337139E+03  0.00000000000E+00 0. -1.
       21   -1    0    0  501  503  0.00000000000E+00  0.00000000000E+00 -0.23076475812E+03  0.23076475812E+03  0.25500000920E-02 0. -1.
       25    2    1    2    0    0  0.37150861852E+02 -0.89252305112E+01  0.83665095967E+02  0.15518920299E+03  0.12499597660E+03 0.  0.
        6    2    1    2  501    0 -0.37150861852E+02  0.89252305112E+01 -0.15493648272E+03  0.23506892652E+03  0.17260428808E+03 0.  0.
       24    2    4    4    0    0  0.26502765274E+02 -0.37640198306E+02 -0.11165189667E+03  0.14498136471E+03  0.80213895215E+02 0.  0.
      -15    1    5    5    0    0 -0.93999977284E+01  0.11476380172E+02  0.29521172513E+01  0.15229575970E+02  0.17769999504E+01 0.  1.
       16    1    5    5    0    0  0.35902763002E+02 -0.49116578478E+02 -0.11460401392E+03  0.12975178874E+03  0.00000000000E+00 0. -1.
        5    1    4    4  501    0 -0.63653627126E+02  0.46565428817E+02 -0.43284586043E+02  0.90087561818E+02  0.46999998093E+01 0. -1.
        5    1    3    3  502    0  0.67035934566E+02  0.29260583558E+02  0.76505127243E+02  0.10594867987E+03  0.46999998093E+01 0.  1.
       -5    1    3    3    0  502 -0.29885072714E+02 -0.38185814069E+02  0.71599687241E+01  0.49240523125E+02  0.46999998093E+01 0.  1.
</event>
<event>
10   0  0.1583500E-03  0.2607055E+03  0.7818609E-02  0.1111216E+00
        2   -1    0    0  503    0  0.00000000000E+00  0.00000000000E+00  0.29221275211E+03  0.29221275212E+03  0.00000000000E+00 0. -1.
       21   -1    0    0  501  503  0.00000000000E+00  0.00000000000E+00 -0.50484789444E+03  0.50484789444E+03  0.25500000920E-02 0. -1.
       25    2    1    2    0    0  0.14193811459E+03 -0.13512304383E+03  0.20154929306E+03  0.30765681149E+03  0.12500372307E+03 0.  0.
        6    2    1    2  501    0 -0.14193811459E+03  0.13512304383E+03 -0.41418443538E+03  0.48940383506E+03  0.17193807580E+03 0.  0.
       24    2    4    4    0    0 -0.10254774240E+03  0.10866469441E+03 -0.16779351276E+03  0.23844124338E+03  0.79846780372E+02 0.  0.
      -13    1    5    5    0    0 -0.31184345303E+02  0.78965283097E+02 -0.53119093161E+02  0.10014803318E+03  0.10565999895E+00 0.  1.
       14    1    5    5    0    0 -0.71363397094E+02  0.29699411316E+02 -0.11467441960E+03  0.13829321020E+03  0.00000000000E+00 0. -1.
        5    1    4    4  501    0 -0.39390372192E+02  0.26458349416E+02 -0.24639092262E+03  0.25096259169E+03  0.46999998093E+01 0. -1.
        5    1    3    3  502    0  0.81142573567E+02 -0.80372983564E+02  0.19424499443E+03  0.22538221223E+03  0.46999998093E+01 0.  1.
       -5    1    3    3    0  502  0.60795541023E+02 -0.54750060264E+02  0.73042986296E+01  0.82274599263E+02  0.46999998093E+01 0.  1.
</event>
<event>
10   0  0.1583500E-03  0.1858704E+03  0.7818609E-02  0.1174223E+00
       21   -1    0    0  501  503  0.00000000000E+00  0.00000000000E+00  0.14463832608E+02  0.14463832608E+02  0.00000000000E+00 0.  1.
        2   -1    0    0  503    0  0.00000000000E+00  0.00000000000E+00 -0.19011585002E+04  0.19011585002E+04  0.25500000920E-02 0. -1.
       25    2    1    2    0    0 -0.65570691845E+02 -0.30501155609E+01 -0.97539735695E+03  0.98556286569E+03  0.12500135783E+03 0.  0.
        6    2    1    2  501    0  0.65570691845E+02  0.30501155609E+01 -0.91129731061E+03  0.93005946708E+03  0.17389366047E+03 0.  0.
       24    2    4    4    0    0  0.76617516580E+02  0.50996961453E+02 -0.45430302127E+03  0.47040002482E+03  0.80087541461E+02 0.  0.
      -13    1    5    5    0    0  0.22023498624E+02  0.50944673804E+02 -0.33002418327E+03  0.33465858272E+03  0.10565999895E+00 0.  1.
       14    1    5    5    0    0  0.54594017956E+02  0.52287648879E-01 -0.12427883800E+03  0.13574144210E+03  0.00000000000E+00 0. -1.
        5    1    4    4  501    0 -0.11046824735E+02 -0.47946845892E+02 -0.45699428934E+03  0.45965944226E+03  0.46999998093E+01 0. -1.
        5    1    3    3  502    0 -0.14026655604E+02 -0.23663846499E+02 -0.82010129757E+03  0.82057598855E+03  0.46999998093E+01 0. -1.
       -5    1    3    3    0  502 -0.51544036241E+02  0.20613730939E+02 -0.15529605938E+03  0.16498687715E+03  0.46999998093E+01 0. -1.
</event>
<event>
10   0  0.1583500E-03  0.2122331E+03  0.7818609E-02  0.1147331E+00
       21   -1    0    0  501  503  0.00000000000E+00  0.00000000000E+00  0.11940872467E+03  0.11940872467E+03  0.00000000000E+00 0.  1.
        2   -1    0    0  503    0  0.00000000000E+00  0.00000000000E+00 -0.76786489744E+03  0.76786489745E+03  0.25500000920E-02 0.  1.
       25    2    1    2    0    0 -0.12554376648E+03  0.46980268290E+01 -0.65134061865E+03  0.67502089999E+03  0.12500122067E+03 0.  0.
        6    2    1    2  501    0  0.12554376648E+03 -0.46980268290E+01  0.28844458737E+01  0.21225272212E+03  0.17105434593E+03 0.  0.
       24    2    4    4    0    0  0.31648858013E+02  0.49630764068E+02  0.24004661029E+02  0.10163615536E+03  0.79302089309E+02 0.  0.
      -13    1    5    5    0    0 -0.20926161402E+02  0.10215676956E+02  0.27252910039E+02  0.35846848625E+02  0.10565999895E+00 0.  1.
       14    1    5    5    0    0  0.52575019414E+02  0.39415087112E+02 -0.32482490107E+01  0.65789306731E+02  0.00000000000E+00 0. -1.
        5    1    4    4  501    0  0.93894908467E+02 -0.54328790897E+02 -0.21120215155E+02  0.11061656676E+03  0.46999998093E+01 0. -1.
        5    1    3    3  502    0 -0.34724052936E+02 -0.39729440014E+02 -0.40866941468E+03  0.41208854479E+03  0.46999998093E+01 0. -1.
       -5    1    3    3    0  502 -0.90819713544E+02  0.44427466843E+02 -0.24267120397E+03  0.26293235520E+03  0.46999998093E+01 0. -1.
</event>
<event>
10   0  0.1583500E-03  0.3148192E+03  0.7818609E-02  0.1080881E+00
        2   -1    0    0  503    0  0.00000000000E+00  0.00000000000E+00  0.16666023071E+04  0.16666023071E+04  0.00000000000E+00 0.  1.
       21   -1    0    0  501  503  0.00000000000E+00  0.00000000000E+00 -0.65267229034E+02  0.65267229034E+02  0.25500000920E-02 0.  1.
       25    2    1    2    0    0  0.18776541111E+03 -0.18502884251E+03  0.11149530164E+04  0.11524917110E+04  0.12500157191E+03 0.  0.
        6    2    1    2  501    0 -0.18776541111E+03  0.18502884251E+03  0.48638206164E+03  0.57937782511E+03  0.17210355072E+03 0.  0.
       24    2    4    4    0    0 -0.14289679891E+03  0.13022622540E+03  0.45676241834E+03  0.50246272599E+03  0.80364913292E+02 0.  0.
      -13    1    5    5    0    0 -0.21630544456E+02  0.70641972895E+02  0.17615948927E+03  0.19102446338E+03  0.10565999895E+00 0.  1.
       14    1    5    5    0    0 -0.12126625445E+03  0.59584252502E+02  0.28060292907E+03  0.31143826261E+03  0.00000000000E+00 0. -1.
        5    1    4    4  501    0 -0.44868612204E+02  0.54802617115E+02  0.29619643299E+02  0.76915099110E+02  0.46999998093E+01 0. -1.
        5    1    3    3  502    0  0.54283000963E+02 -0.54135461262E+02  0.59487288581E+03  0.59981091406E+03  0.46999998093E+01 0. -1.
       -5    1    3    3    0  502  0.13348241015E+03 -0.13089338125E+03  0.52008013062E+03  0.55268079697E+03  0.46999998093E+01 0. -1.
</event>
<event>
10   0  0.1583500E-03  0.1786488E+03  0.7818609E-02  0.1181666E+00
        2   -1    0    0  503    0  0.00000000000E+00  0.00000000000E+00  0.71152924925E+03  0.71152924925E+03  0.00000000000E+00 0.  1.
       21   -1    0    0  501  503  0.00000000000E+00  0.00000000000E+00 -0.34677578363E+02  0.34677578363E+02  0.25500000920E-02 0.  1.
       25    2    1    2    0    0 -0.49112214056E+02 -0.59070390045E+01  0.26035753444E+03  0.29301506178E+03  0.12499951206E+03 0.  0.
        6    2    1    2  501    0  0.49112214056E+02  0.59070390045E+01  0.41649413644E+03  0.45319176583E+03  0.17166393985E+03 0.  0.
       24    2    4    4    0    0  0.44240323110E+02 -0.32489436766E+02  0.12219344520E+03  0.15631972010E+03  0.80571999793E+02 0.  0.
      -15    1    5    5    0    0  0.55346994807E+02 -0.55012822277E+01  0.11259780057E+03  0.12559847277E+03  0.17769999504E+01 0.  1.
       16    1    5    5    0    0 -0.11106671696E+02 -0.26988154539E+02  0.95956446369E+01  0.30721247331E+02  0.00000000000E+00 0. -1.
        5    1    4    4  501    0  0.48718909459E+01  0.38396475771E+02  0.29430069124E+03  0.29687204573E+03  0.46999998093E+01 0. -1.
        5    1    3    3  502    0  0.25855308426E+01  0.33887239084E+02  0.12250156073E+02  0.36430567721E+02  0.46999998093E+01 0.  1.
       -5    1    3    3    0  502 -0.51697744899E+02 -0.39794278088E+02  0.24810737837E+03  0.25658449406E+03  0.46999998093E+01 0.  1.
</event>
<event>
10   0  0.1583500E-03  0.3005391E+03  0.7818609E-02  0.1088371E+00
       -2   -1    0    0    0  501  0.00000000000E+00  0.00000000000E+00  0.16373038725E+03  0.16373038727E+03  0.00000000000E+00 0. -1.
       21   -1    0    0  501  503  0.00000000000E+00  0.00000000000E+00 -0.59518405749E+03  0.59518405749E+03  0.25500000920E-02 0.  1.
       25    2    1    2    0    0  0.19235007811E+03 -0.15084788731E+03 -0.35504113036E+03  0.44881346544E+03  0.12500273941E+03 0.  0.
       -6    2    1    2    0  503 -0.19235007811E+03  0.15084788731E+03 -0.76412539875E+02  0.31010097932E+03  0.17484308242E+03 0.  0.
      -24    2    4    4    0    0 -0.23793850413E+02  0.30287444555E+02  0.55849029934E+01  0.87184643247E+02  0.78015987218E+02 0.  0.
       15    1    5    5    0    0  0.98840730431E+01 -0.15637420147E+02 -0.17694168597E+02  0.25660575596E+02  0.17769999504E+01 0. -1.
      -16    1    5    5    0    0 -0.33677923456E+02  0.45924864702E+02  0.23279071590E+02  0.61524067651E+02  0.00000000000E+00 0.  1.
       -5    1    4    4    0  503 -0.16855622769E+03  0.12056044276E+03 -0.81997442868E+02  0.22291633607E+03  0.46999998093E+01 0.  1.
        5    1    3    3  502    0  0.16892153513E+03 -0.12307165476E+03 -0.19933981991E+03  0.28885908508E+03  0.46999998093E+01 0. -1.
       -5    1    3    3    0  502  0.23428542975E+02 -0.27776232552E+02 -0.15570131046E+03  0.15995438036E+03  0.46999998093E+01 0. -1.
</event>
<event>
10   0  0.1583500E-03  0.2284233E+03  0.7818609E-02  0.1133814E+00
        2   -1    0    0  503    0  0.00000000000E+00  0.00000000000E+00  0.34579140092E+03  0.34579140093E+03  0.00000000000E+00 0.  1.
       21   -1    0    0  501  503  0.00000000000E+00  0.00000000000E+00 -0.15153883919E+03  0.15153883919E+03  0.25500000920E-02 0.  1.
       25    2    1    2    0    0  0.15106675409E+03 -0.17816832205E+02  0.18273886371E+03  0.26861696569E+03  0.12499191272E+03 0.  0.
        6    2    1    2  501    0 -0.15106675409E+03  0.17816832205E+02  0.11513698025E+02  0.22871327444E+03  0.17040713882E+03 0.  0.
       24    2    4    4    0    0 -0.10945653489E+03  0.69339914521E+02 -0.20744493248E+02  0.15489783394E+03  0.82305821084E+02 0.  0.
      -15    1    5    5    0    0 -0.47871739551E+02 -0.11516684214E+02 -0.20220520453E+02  0.53257531291E+02  0.17769999504E+01 0.  1.
       16    1    5    5    0    0 -0.61584795340E+02  0.80856598735E+02 -0.52397279535E+00  0.10164030265E+03  0.00000000000E+00 0. -1.
        5    1    4    4  501    0 -0.41610219193E+02 -0.51523082316E+02  0.32258191274E+02  0.73815440492E+02  0.46999998093E+01 0. -1.
        5    1    3    3  502    0  0.16183940615E+03  0.32883704663E+01  0.12049974040E+03  0.20185411613E+03  0.46999998093E+01 0.  1.
       -5    1    3    3    0  502 -0.10772652068E+02 -0.21105202671E+02  0.62239123307E+02  0.66762849555E+02  0.46999998093E+01 0.  1.
</event>
<event>
10   0  0.1583500E-03  0.2086118E+03  0.7818609E-02  0.1150913E+00
        2   -1    0    0  503    0  0.00000000000E+00  0.00000000000E+00  0.11951865642E+04  0.11951865642E+04  0.00000000000E+00 0.  1.
       21   -1    0    0  501  503  0.00000000000E+00  0.00000000000E+00 -0.60054692013E+02  0.60054692013E+02  0.25500000920E-02 0.  1.
       25    2    1    2    0    0  0.11490785492E+03 -0.23484262527E+02  0.98101015446E+03  0.99587203092E+03  0.12499941247E+03 0.  0.
        6    2    1    2  501    0 -0.11490785492E+03  0.23484262527E+02  0.15412171773E+03  0.25936922529E+03  0.17252120288E+03 0.  0.
       24    2    4    4    0    0 -0.20219828250E+02 -0.48089089990E+01  0.78691982627E+01  0.82795684244E+02  0.79757344414E+02 0.  0.
      -13    1    5    5    0    0 -0.48749905096E+01 -0.29548842520E+02  0.32837090767E+02  0.44443057059E+02  0.10565999895E+00 0.  1.
       14    1    5    5    0    0 -0.15344837740E+02  0.24739933521E+02 -0.24967892504E+02  0.38352627185E+02  0.00000000000E+00 0. -1.
        5    1    4    4  501    0 -0.94688026668E+02  0.28293171526E+02  0.14625251946E+03  0.17657354104E+03  0.46999998093E+01 0. -1.
        5    1    3    3  502    0  0.14204209283E+03 -0.18539848790E+02  0.83320097021E+03  0.84543812836E+03  0.46999998093E+01 0. -1.
       -5    1    3    3    0  502 -0.27134237909E+02 -0.49444137365E+01  0.14780918425E+03  0.15043390256E+03  0.46999998093E+01 0. -1.
</event>
<event>
10   0  0.1583500E-03  0.1719222E+03  0.7818609E-02  0.1187973E+00
        2   -1    0    0  503    0  0.00000000000E+00  0.00000000000E+00  0.32007170891E+03  0.32007170892E+03  0.00000000000E+00 0. -1.
       21   -1    0    0  501  503  0.00000000000E+00  0.00000000000E+00 -0.29507233162E+03  0.29507233162E+03  0.25500000920E-02 0. -1.
       25    2    1    2    0    0  0.11106446515E+02 -0.37729070797E+02  0.27910593674E+03  0.30834217250E+03  0.12501174136E+03 0.  0.
        6    2    1    2  501    0 -0.11106446515E+02  0.37729070797E+02 -0.25410655945E+03  0.30680186804E+03  0.16736309849E+03 0.  0.
       24    2    4    4    0    0 -0.58698242368E+02  0.56738603745E+02 -0.20827691322E+03  0.23789041872E+03  0.80918637687E+02 0.  0.
      -13    1    5    5    0    0 -0.14761605089E+00  0.29370421107E+02 -0.12860113070E+02  0.32063017617E+02  0.10565999895E+00 0.  1.
       14    1    5    5    0    0 -0.58550626317E+02  0.27368182638E+02 -0.19541680015E+03  0.20582740110E+03  0.00000000000E+00 0. -1.
        5    1    4    4  501    0  0.47591795854E+02 -0.19009532947E+02 -0.45829646236E+02  0.68911449323E+02  0.46999998093E+01 0. -1.
        5    1    3    3  502    0 -0.56650308969E+01 -0.79667683494E+02  0.21794010061E+03  0.23216160282E+03  0.46999998093E+01 0.  1.
       -5    1    3    3    0  502  0.16771477412E+02  0.41938612696E+02  0.61165836129E+02  0.76180569681E+02  0.46999998093E+01 0.  1.
</event>
<event>
10   0  0.1583500E-03  0.1911740E+03  0.7818609E-02  0.1166770E+00
       21   -1    0    0  501  503  0.00000000000E+00  0.00000000000E+00  0.42548732082E+02  0.42548732082E+02  0.00000000000E+00 0.  1.
        4   -1    0    0  503    0  0.00000000000E+00  0.00000000000E+00 -0.71481263358E+03  0.71481376177E+03  0.12699999809E+01 0. -1.
       25    2    1    2    0    0  0.74689053473E+01 -0.89391826444E+02 -0.35574991010E+03  0.38759417881E+03  0.12499826289E+03 0.  0.
        6    2    1    2  501    0 -0.74689053473E+01  0.89391826444E+02 -0.31651399139E+03  0.36976831505E+03  0.16882184955E+03 0.  0.
       24    2    4    4    0    0  0.57916823760E+02  0.33664874940E+02 -0.17962262137E+03  0.20808305326E+03  0.80910992250E+02 0.  0.
      -13    1    5    5    0    0  0.29091288212E+02  0.45857530027E+02 -0.47010707172E+02  0.71827807031E+02  0.10565999895E+00 0.  1.
       14    1    5    5    0    0  0.28825535548E+02 -0.12192655087E+02 -0.13261191420E+03  0.13625524623E+03  0.00000000000E+00 0. -1.
        5    1    4    4  501    0 -0.65385729107E+02  0.55726951504E+02 -0.13689137002E+03  0.16168526179E+03  0.46999998093E+01 0. -1.
        5    1    3    3  502    0  0.48561317127E+02 -0.44783305406E+02 -0.29224210434E+03  0.29965193727E+03  0.46999998093E+01 0. -1.
       -5    1    3    3    0  502 -0.41092411779E+02 -0.44608521038E+02 -0.63507805761E+02  0.87942241533E+02  0.46999998093E+01 0. -1.
</event>
<event>
10   0  0.1583500E-03  0.5640391E+03  0.7818609E-02  0.9991194E-01
        2   -1    0    0  503    0  0.00000000000E+00  0.00000000000E+00  0.14302055888E+04  0.14302055888E+04  0.00000000000E+00 0.  1.
       21   -1    0    0  501  503  0.00000000000E+00  0.00000000000E+00 -0.37825246193E+03  0.37825246193E+03  0.25500000920E-02 0. -1.
       25    2    1    2    0    0 -0.39814622929E+03  0.35756774883E+03  0.11128476719E+04  0.12411413421E+04  0.12500710111E+03 0.  0.
        6    2    1    2  501    0  0.39814622929E+03 -0.35756774883E+03 -0.60894544956E+02  0.56731670870E+03  0.17822734769E+03 0.  0.
       24    2    4    4    0    0  0.24651679159E+03 -0.26082449400E+03  0.24212257381E+02  0.36827901997E+03  0.79014289459E+02 0.  0.
      -15    1    5    5    0    0  0.11255734551E+03 -0.17327794571E+03  0.14533521932E+01  0.20663899066E+03  0.17769999504E+01 0.  1.
       16    1    5    5    0    0  0.13395944608E+03 -0.87546548283E+02  0.22758905188E+02  0.16164002931E+03  0.00000000000E+00 0. -1.
        5    1    4    4  501    0  0.15162943770E+03 -0.96743254833E+02 -0.85106802337E+02  0.19903768873E+03  0.46999998093E+01 0. -1.
        5    1    3    3  502    0 -0.21210905859E+03  0.27094175252E+03  0.71108972966E+03  0.78998125270E+03  0.46999998093E+01 0.  1.
       -5    1    3    3    0  502 -0.18603717070E+03  0.86625996313E+02  0.40175794221E+03  0.45116008938E+03  0.46999998093E+01 0.  1.
</event>
<event>
10   0  0.1583500E-03  0.1889961E+03  0.7818609E-02  0.1169765E+00
       21   -1    0    0  501  503  0.00000000000E+00  0.00000000000E+00  0.52702561258E+02  0.52702561258E+02  0.00000000000E+00 0. -1.
        2   -1    0    0  503    0  0.00000000000E+00  0.00000000000E+00 -0.66473710811E+03  0.66473710811E+03  0.25500000920E-02 0. -1.
       25    2    1    2    0    0  0.57969264510E+02  0.55766626691E+02 -0.43024769920E+03  0.45520701497E+03  0.12501996453E+03 0.  0.
        6    2    1    2  501    0 -0.57969264510E+02 -0.55766626691E+02 -0.18178684765E+03  0.26223265440E+03  0.17102384271E+03 0.  0.
       24    2    4    4    0    0 -0.58238380923E+02 -0.18462102908E+02 -0.19660393722E+03  0.22181810182E+03  0.82568782892E+02 0.  0.
      -13    1    5    5    0    0 -0.51923654364E+02 -0.48335289239E+02 -0.12069960345E+03  0.14000275535E+03  0.10565999895E+00 0.  1.
       14    1    5    5    0    0 -0.63147265595E+01  0.29873186331E+02 -0.75904333772E+02  0.81815346473E+02  0.00000000000E+00 0. -1.
        5    1    4    4  501    0  0.26911641293E+00 -0.37304523783E+02  0.14817089574E+02  0.40414552576E+02  0.46999998093E+01 0. -1.
        5    1    3    3  502    0  0.12512971440E+02 -0.27382001486E+02 -0.26251712475E+02  0.40219284749E+02  0.46999998093E+01 0.  1.
       -5    1    3    3    0  502  0.45456293070E+02  0.83148628177E+02 -0.40399598672E+03  0.41498773022E+03  0.46999998093E+01 0.  1.
</event>
<event>
10   0  0.1583500E-03  0.1993534E+03  0.7818609E-02  0.1158613E+00
        2   -1    0    0  503    0  0.00000000000E+00  0.00000000000E+00  0.10289831677E+04  0.10289831677E+04  0.00000000000E+00 0.  1.
       21   -1    0    0  501  503  0.00000000000E+00  0.00000000000E+00 -0.40535166191E+02  0.40535166191E+02  0.25500000920E-02 0.  1.
       25    2    1    2    0    0  0.66660293847E+02 -0.82445716533E+02  0.69967073071E+03  0.71861365847E+03  0.12500227111E+03 0.  0.
        6    2    1    2  501    0 -0.66660293847E+02  0.82445716533E+02  0.28877727077E+03  0.35090467539E+03  0.16882206061E+03 0.  0.
       24    2    4    4    0    0 -0.74470195558E+02  0.11596140010E+03  0.26366852800E+03  0.30804636731E+03  0.79866234507E+02 0.  0.
      -15    1    5    5    0    0  0.94478034732E+01 -0.35568216248E+01  0.37107580652E+02  0.38497301740E+02  0.17769999504E+01 0.  1.
       16    1    5    5    0    0 -0.83917999032E+02  0.11951822173E+03  0.22656094735E+03  0.26954906557E+03  0.00000000000E+00 0. -1.
        5    1    4    4  501    0  0.78099017113E+01 -0.33515683569E+02  0.25108742765E+02  0.42858308078E+02  0.46999998093E+01 0. -1.
        5    1    3    3  502    0 -0.97462899207E+01  0.27637546476E+02  0.13890221239E+03  0.14203780746E+03  0.46999998093E+01 0.  1.
       -5    1    3    3    0  502  0.76406583768E+02 -0.11008326301E+03  0.56076851832E+03  0.57657585101E+03  0.46999998093E+01 0.  1.
</event>
<event>
10   0  0.1583500E-03  0.1933749E+03  0.7818609E-02  0.1165515E+00
       21   -1    0    0  501  503  0.00000000000E+00  0.00000000000E+00  0.46359185929E+02  0.46359185929E+02  0.00000000000E+00 0. -1.
        2   -1    0    0  503    0  0.00000000000E+00  0.00000000000E+00 -0.98961357952E+03  0.98961357952E+03  0.25500000920E-02 0. -1.
       25    2    1    2    0    0 -0.75104642040E+02 -0.46368504212E+02 -0.73909871866E+03  0.75477285273E+03  0.12499759142E+03 0.  0.
        6    2    1    2  501    0  0.75104642040E+02  0.46368504212E+02 -0.20415567493E+03  0.28119991272E+03  0.17205553135E+03 0.  0.
       24    2    4    4    0    0  0.12950264430E+02  0.58870951503E+02 -0.19458039565E+03  0.21690952607E+03  0.74529952695E+02 0.  0.
      -15    1    5    5    0    0 -0.21849293878E+02  0.15891378497E+02 -0.12566627478E+03  0.12854998210E+03  0.17769999504E+01 0.  1.
       16    1    5    5    0    0  0.34799558308E+02  0.42979573006E+02 -0.68914120869E+02  0.88359543963E+02  0.00000000000E+00 0. -1.
        5    1    4    4  501    0  0.62154377610E+02 -0.12502447291E+02 -0.95752792866E+01  0.64290386653E+02  0.46999998093E+01 0. -1.
        5    1    3    3  502    0  0.23879085285E+02 -0.13289766304E+02 -0.37385682089E+03  0.37488377015E+03  0.46999998093E+01 0.  1.
       -5    1    3    3    0  502 -0.98983727326E+02 -0.33078737908E+02 -0.36524189777E+03  0.37988908258E+03  0.46999998093E+01 0.  1.
</event>
<event>
10   0  0.1583500E-03  0.1732463E+03  0.7818609E-02  0.1188566E+00
        2   -1    0    0  503    0  0.00000000000E+00  0.00000000000E+00  0.24051543619E+03  0.24051543620E+03  0.00000000000E+00 0. -1.
       21   -1    0    0  501  503  0.00000000000E+00  0.00000000000E+00 -0.12361727017E+03  0.12361727017E+03  0.25500000920E-02 0. -1.
       25    2    1    2    0    0 -0.10697916943E+02  0.15392898716E+02  0.14083755055E+03  0.18924025986E+03  0.12500109418E+03 0.  0.
        6    2    1    2  501    0  0.10697916943E+02 -0.15392898716E+02 -0.23939384534E+02  0.17489244651E+03  0.17222916987E+03 0.  0.
       24    2    4    4    0    0  0.25685550788E+02 -0.24346864808E+02 -0.78606257677E+02  0.11731328626E+03  0.79567242271E+02 0.  0.
      -15    1    5    5    0    0  0.15479347338E+02 -0.22647071835E+01  0.14303395907E+02  0.21271670266E+02  0.17769999504E+01 0.  1.
       16    1    5    5    0    0  0.10206203450E+02 -0.22082157624E+02 -0.92909653584E+02  0.96041615997E+02  0.00000000000E+00 0. -1.
        5    1    4    4  501    0 -0.14987633845E+02  0.89539660922E+01  0.54666873143E+02  0.57579160245E+02  0.46999998093E+01 0. -1.
        5    1    3    3  502    0  0.29676074212E+02 -0.36604237751E+01 -0.99899509089E+01  0.31874083520E+02  0.46999998093E+01 0. -1.
       -5    1    3    3    0  502 -0.40373991155E+02  0.19053322491E+02  0.15082750146E+03  0.15736617634E+03  0.46999998093E+01 0. -1.
</event>
<event>
10   0  0.1583500E-03  0.1950125E+03  0.7818609E-02  0.1163717E+00
       21   -1    0    0  501  503  0.00000000000E+00  0.00000000000E+00  0.30090151668E+02  0.30090151668E+02  0.00000000000E+00 0.  1.
        2   -1    0    0  503    0  0.00000000000E+00  0.00000000000E+00 -0.10227719175E+04  0.10227719175E+04  0.25500000920E-02 0.  1.
       25    2    1    2    0    0 -0.87972686555E+02 -0.28680797056E+02 -0.46296189502E+03  0.48838620181E+03  0.12500233669E+03 0.  0.
        6    2    1    2  501    0  0.87972686555E+02  0.28680797056E+02 -0.52971987077E+03  0.56447586732E+03  0.17166269717E+03 0.  0.
       24    2    4    4    0    0  0.57864590934E+02  0.27756430676E+02 -0.52374166381E+03  0.53340850773E+03  0.78106180156E+02 0.  0.
      -13    1    5    5    0    0  0.30023004890E+02 -0.25823689712E+02 -0.17010097428E+03  0.17464992524E+03  0.10565999895E+00 0.  1.
       14    1    5    5    0    0  0.27841586044E+02  0.53580120388E+02 -0.35364068953E+03  0.35875858249E+03  0.00000000000E+00 0. -1.
        5    1    4    4  501    0  0.30108095621E+02  0.92436638053E+00 -0.59782069558E+01  0.31067359588E+02  0.46999998093E+01 0. -1.
        5    1    3    3  502    0 -0.11537463202E+02  0.33530328461E+02 -0.26285486630E+03  0.26527752773E+03  0.46999998093E+01 0. -1.
       -5    1    3    3    0  502 -0.76435223353E+02 -0.62211125517E+02 -0.20010702872E+03  0.22310867408E+03  0.46999998093E+01 0. -1.
</event>
<event>
10   0  0.1583500E-03  0.1887900E+03  0.7818609E-02  0.1170366E+00
       21   -1    0    0  501  503  0.00000000000E+00  0.00000000000E+00  0.14050916338E+03  0.14050916338E+03  0.00000000000E+00 0. -1.
       -2   -1    0    0    0  501  0.00000000000E+00  0.00000000000E+00 -0.53852584159E+03  0.53852584159E+03  0.25500000920E-02 0. -1.
       25    2    1    2    0    0  0.70449584346E+02 -0.32468042275E+02 -0.45791885702E+03  0.48096949502E+03  0.12499863129E+03 0.  0.
       -6    2    1    2    0  503 -0.70449584346E+02  0.32468042275E+02  0.59902178815E+02  0.19806550995E+03  0.17211727834E+03 0.  0.
      -24    2    4    4    0    0 -0.15894398594E+02 -0.43627539099E+02  0.65691872678E+01  0.90207715692E+02  0.77060260022E+02 0.  0.
       15    1    5    5    0    0  0.27189058307E+02 -0.19405500915E+02  0.20020269849E+02  0.38984449349E+02  0.17769999504E+01 0. -1.
      -16    1    5    5    0    0 -0.43083456901E+02 -0.24222038184E+02 -0.13451082581E+02  0.51223266344E+02  0.00000000000E+00 0.  1.
       -5    1    4    4    0  503 -0.54555185752E+02  0.76095581374E+02  0.53332991547E+02  0.10785779426E+03  0.46999998093E+01 0.  1.
        5    1    3    3  502    0  0.79611490677E+02  0.19844991525E+02 -0.36216762762E+03  0.37137486941E+03  0.46999998093E+01 0.  1.
       -5    1    3    3    0  502 -0.91619063310E+01 -0.52313033800E+02 -0.95751229405E+02  0.10959462562E+03  0.46999998093E+01 0.  1.
</event>
<event>
10   0  0.1583500E-03  0.1779503E+03  0.7818609E-02  0.1182855E+00
       -2   -1    0    0    0  501  0.00000000000E+00  0.00000000000E+00  0.23194423779E+03  0.23194423780E+03  0.00000000000E+00 0.  1.
       21   -1    0    0  501  503  0.00000000000E+00  0.00000000000E+00 -0.17166532478E+03  0.17166532478E+03  0.25500000920E-02 0.  1.
       25    2    1    2    0    0 -0.31746830911E+02 -0.30153097749E+02  0.15348044438E+03  0.20272944266E+03  0.12500363811E+03 0.  0.
       -6    2    1    2    0  503  0.31746830911E+02  0.30153097749E+02 -0.93201531375E+02  0.20088011992E+03  0.17247964098E+03 0.  0.
      -24    2    4    4    0    0  0.74128892563E+02 -0.19968832658E+02 -0.71500208699E+02  0.13158737527E+03  0.79429909326E+02 0.  0.
       11    1    5    5    0    0  0.45773032542E+02  0.90336960487E+00  0.62784293459E+01  0.46210445357E+02  0.51099999109E-03 0. -1.
      -12    1    5    5    0    0  0.28355860020E+02 -0.20872202263E+02 -0.77778638045E+02  0.85376929911E+02  0.00000000000E+00 0.  1.
       -5    1    4    4    0  503 -0.42382061652E+02  0.50121930407E+02 -0.21701322676E+02  0.69292744654E+02  0.46999998093E+01 0.  1.
        5    1    3    3  502    0  0.12250881801E+02 -0.15468961777E+02 -0.16702526836E+02  0.26276173319E+02  0.46999998093E+01 0. -1.
       -5    1    3    3    0  502 -0.43997712711E+02 -0.14684135972E+02  0.17018297121E+03  0.17645326934E+03  0.46999998093E+01 0. -1.
</event>
<event>
10   0  0.1583500E-03  0.2250456E+03  0.7818609E-02  0.1136771E+00
       21   -1    0    0  501  503  0.00000000000E+00  0.00000000000E+00  0.32925535857E+02  0.32925535857E+02  0.00000000000E+00 0.  1.
        2   -1    0    0  503    0  0.00000000000E+00  0.00000000000E+00 -0.13480398627E+04  0.13480398627E+04  0.25500000920E-02 0. -1.
       25    2    1    2    0    0  0.12651097792E+03  0.71250596626E+02 -0.70865431060E+03  0.73409658894E+03  0.12500077963E+03 0.  0.
        6    2    1    2  501    0 -0.12651097792E+03 -0.71250596626E+02 -0.60646001624E+03  0.64686880962E+03  0.17194135775E+03 0.  0.
       24    2    4    4    0    0 -0.12289964725E+03 -0.95799807185E+02 -0.37160795955E+03  0.41066278942E+03  0.79180330015E+02 0.  0.
      -11    1    5    5    0    0 -0.53612432701E+02 -0.89669300302E+02 -0.20404842886E+03  0.22923925859E+03  0.51099999109E-03 0.  1.
       12    1    5    5    0    0 -0.69287214549E+02 -0.61305068832E+01 -0.16755953069E+03  0.18142353083E+03  0.00000000000E+00 0. -1.
        5    1    4    4  501    0 -0.36113306690E+01  0.24549210559E+02 -0.23485205669E+03  0.23620602020E+03  0.46999998093E+01 0. -1.
        5    1    3    3  502    0  0.45047609613E+02 -0.21923459402E+02 -0.37189586077E+03  0.37528462060E+03  0.46999998093E+01 0. -1.
       -5    1    3    3    0  502  0.81463368305E+02  0.93174056028E+02 -0.33675844983E+03  0.35881196833E+03  0.46999998093E+01 0. -1.
</event>
<event>
10   0  0.1583500E-03  0.2081952E+03  0.7818609E-02  0.1151037E+00
        2   -1    0    0  503    0  0.00000000000E+00  0.00000000000E+00  0.13885952161E+04  0.13885952161E+04  0.00000000000E+00 0. -1.
       21   -1    0    0  501  503  0.00000000000E+00  0.00000000000E+00 -0.43141594958E+02  0.43141594958E+02  0.25500000920E-02 0.  1.
       25    2    1    2    0    0  0.80752027850E+02 -0.86126601477E+02  0.10838335326E+04  0.10973862440E+04  0.12499104249E+03 0.  0.
        6    2    1    2  501    0 -0.80752027850E+02  0.86126601477E+02  0.26162008854E+03  0.33435056703E+03  0.17148337955E+03 0.  0.
       24    2    4    4    0    0 -0.27067164937E+02  0.49541102275E+02  0.41774168442E+02  0.10505843494E+03  0.78136043991E+02 0.  0.
      -11    1    5    5    0    0  0.11006848441E+02 -0.69685767052E+01 -0.12417124285E+02  0.17997131707E+02  0.51099999109E-03 0.  1.
       12    1    5    5    0    0 -0.38074013378E+02  0.56509678981E+02  0.54191292727E+02  0.87061303233E+02  0.00000000000E+00 0. -1.
        5    1    4    4  501    0 -0.53684862913E+02  0.36585499201E+02  0.21984592010E+03  0.22929213209E+03  0.46999998093E+01 0. -1.
        5    1    3    3  502    0 -0.15136840358E+02  0.72572466008E+01  0.41007183220E+03  0.41044218731E+03  0.46999998093E+01 0.  1.
       -5    1    3    3    0  502  0.95888868208E+02 -0.93383848077E+02  0.67376170040E+03  0.68694405672E+03  0.46999998093E+01 0.  1.
</event>
<event>
10   0  0.1583500E-03  0.2319456E+03  0.7818609E-02  0.1131408E+00
       21   -1    0    0  501  503  0.00000000000E+00  0.00000000000E+00  0.15617669266E+03  0.15617669266E+03  0.00000000000E+00 0. -1.
        2   -1    0    0  503    0  0.00000000000E+00  0.00000000000E+00 -0.12654805335E+04  0.12654805335E+04  0.25500000920E-02 0. -1.
       25    2    1    2    0    0  0.11367096462E+03 -0.10598355533E+03 -0.11659586904E+04  0.11828926114E+04  0.12498663974E+03 0.  0.
        6    2    1    2  501    0 -0.11367096462E+03  0.10598355533E+03  0.56654849546E+02  0.23876461481E+03  0.17217771955E+03 0.  0.
       24    2    4    4    0    0 -0.10324057332E+03  0.10317543627E+02  0.54160322725E+02  0.14238468162E+03  0.81086307830E+02 0.  0.
      -13    1    5    5    0    0  0.93117923885E+01 -0.10293141332E+02 -0.34113213427E+01  0.14293582941E+02  0.10565999895E+00 0.  1.
       14    1    5    5    0    0 -0.11255236571E+03  0.20610684958E+02  0.57571644068E+02  0.12809109868E+03  0.00000000000E+00 0. -1.
        5    1    4    4  501    0 -0.10430391303E+02  0.95666011708E+02  0.24945268208E+01  0.96379933187E+02  0.46999998093E+01 0. -1.
        5    1    3    3  502    0 -0.13663086847E+02 -0.44099848190E+02 -0.49344822622E+03  0.49562558299E+03  0.46999998093E+01 0.  1.
       -5    1    3    3    0  502  0.12733405147E+03 -0.61883707144E+02 -0.67251046418E+03  0.68726702839E+03  0.46999998093E+01 0.  1.
</event>
<event>
10   0  0.1583500E-03  0.5146842E+03  0.7818609E-02  0.1010853E+00
        2   -1    0    0  503    0  0.00000000000E+00  0.00000000000E+00  0.34180624470E+04  0.34180624470E+04  0.00000000000E+00 0.  1.
       21   -1    0    0  501  503  0.00000000000E+00  0.00000000000E+00 -0.13268282756E+03  0.13268282756E+03  0.25500000920E-02 0. -1.
       25    2    1    2    0    0  0.13932104471E+03 -0.46532294807E+03  0.27956946227E+04  0.28403290771E+04  0.12500017168E+03 0.  0.
        6    2    1    2  501    0 -0.13932104471E+03  0.46532294807E+03  0.48968499668E+03  0.71041619747E+03  0.17018806702E+03 0.  0.
       24    2    4    4    0    0 -0.10842528440E+03  0.28305682191E+03  0.21734036448E+03  0.38122145657E+03  0.78840079870E+02 0.  0.
      -13    1    5    5    0    0 -0.10516005145E+03  0.21513439555E+03  0.19746081673E+03  0.31037433830E+03  0.10565999895E+00 0.  1.
       14    1    5    5    0    0 -0.32652329463E+01  0.67922426359E+02  0.19879547757E+02  0.70847118274E+02  0.00000000000E+00 0. -1.
        5    1    4    4  501    0 -0.30895760317E+02  0.18226612617E+03  0.27234463219E+03  0.32919474090E+03  0.46999998093E+01 0. -1.
        5    1    3    3  502    0  0.10340405740E+03 -0.18528417676E+03  0.14383626635E+04  0.14539366792E+04  0.46999998093E+01 0. -1.
       -5    1    3    3    0  502  0.35916987309E+02 -0.28003877132E+03  0.13573319592E+04  0.13863923979E+04  0.46999998093E+01 0. -1.
</event>
<event>
10   0  0.1583500E-03  0.1737240E+03  0.7818609E-02  0.1187932E+00
        2   -1    0    0  503    0  0.00000000000E+00  0.00000000000E+00  0.16234190083E+04  0.16234190083E+04  0.00000000000E+00 0.  1.
       21   -1    0    0  501  503  0.00000000000E+00  0.00000000000E+00 -0.41565245554E+02  0.41565245554E+02  0.25500000920E-02 0.  1.
       25    2    1    2    0    0  0.63064204913E+01  0.22327852034E+02  0.14258147998E+04  0.14314715697E+04  0.12499883103E+03 0.  0.
        6    2    1    2  501    0 -0.63064204913E+01 -0.22327852034E+02  0.15603896297E+03  0.23351268413E+03  0.17216768503E+03 0.  0.
       24    2    4    4    0    0 -0.38752214371E+01 -0.79925995154E+02  0.97234369146E+02  0.15102918837E+03  0.83379320903E+02 0.  0.
      -13    1    5    5    0    0 -0.41556718915E+02 -0.28456883641E+02  0.31357533675E+02  0.59330103622E+02  0.10565999895E+00 0.  1.
       14    1    5    5    0    0  0.37681497478E+02 -0.51469111514E+02  0.65876835471E+02  0.91699084750E+02  0.00000000000E+00 0. -1.
        5    1    4    4  501    0 -0.24311990542E+01  0.57598143121E+02  0.58804593828E+02  0.82483495763E+02  0.46999998093E+01 0. -1.
        5    1    3    3  502    0 -0.25778427377E+02 -0.11755920987E+01  0.65350936023E+02  0.70418351104E+02  0.46999998093E+01 0. -1.
       -5    1    3    3    0  502  0.32084847869E+02  0.23503444133E+02  0.13604638638E+04  0.13610532186E+04  0.46999998093E+01 0. -1.
</event>
<event>
10   0  0.1583500E-03  0.2424003E+03  0.7818609E-02  0.1123521E+00
       21   -1    0    0  501  503  0.00000000000E+00  0.00000000000E+00  0.46504302971E+02  0.46504302971E+02  0.00000000000E+00 0. -1.
        2   -1    0    0  503    0  0.00000000000E+00  0.00000000000E+00 -0.18818923762E+04  0.18818923762E+04  0.25500000920E-02 0.  1.
       25    2    1    2    0    0  0.92277550320E+02 -0.14462258605E+03 -0.14979707164E+04  0.15129350589E+04  0.12500154576E+03 0.  0.
        6    2    1    2  501    0 -0.92277550320E+02  0.14462258605E+03 -0.33741735677E+03  0.41546162026E+03  0.17125141333E+03 0.  0.
       24    2    4    4    0    0 -0.52167943847E+02  0.36847981505E+01 -0.11943399404E+03  0.15276202564E+03  0.79603300441E+02 0.  0.
      -15    1    5    5    0    0  0.10635526343E+02 -0.16782959067E+02 -0.48936863404E+01  0.20539913107E+02  0.17769999504E+01 0.  1.
       16    1    5    5    0    0 -0.62803470190E+02  0.20467757217E+02 -0.11454030770E+03  0.13222211253E+03  0.00000000000E+00 0. -1.
        5    1    4    4  501    0 -0.40109606473E+02  0.14093778790E+03 -0.21798336273E+03  0.26269959462E+03  0.46999998093E+01 0. -1.
        5    1    3    3  502    0  0.93383937594E+02 -0.13453352435E+03 -0.14905166299E+04  0.14994938289E+04  0.46999998093E+01 0.  1.
       -5    1    3    3    0  502 -0.11063872736E+01 -0.10089061699E+02 -0.74540865321E+01  0.13441229966E+02  0.46999998093E+01 0.  1.
</event>
<event>
10   0  0.1583500E-03  0.1755450E+03  0.7818609E-02  0.1184327E+00
        2   -1    0    0  503    0  0.00000000000E+00  0.00000000000E+00  0.18403496742E+04  0.18403496742E+04  0.00000000000E+00 0.  1.
       21   -1    0    0  501  503  0.00000000000E+00  0.00000000000E+00 -0.30274468978E+02  0.30274468978E+02  0.25500000920E-02 0.  1.
       25    2    1    2    0    0 -0.39522889000E+02 -0.25213616582E+02  0.15564983548E+04  0.15622132649E+04  0.12500148543E+03 0.  0.
        6    2    1    2  501    0  0.39522889000E+02  0.25213616582E+02  0.25357685043E+03  0.30841087827E+03  0.16916933986E+03 0.  0.
       24    2    4    4    0    0  0.66294606148E+02  0.27776060181E+02  0.84544855369E+02  0.13718822700E+03  0.80661593929E+02 0.  0.
      -15    1    5    5    0    0  0.28499541523E+02  0.37065747232E+02  0.30644104366E+01  0.46889677169E+02  0.17769999504E+01 0.  1.
       16    1    5    5    0    0  0.37795064625E+02 -0.92896870508E+01  0.81480444933E+02  0.90298549833E+02  0.00000000000E+00 0. -1.
        5    1    4    4  501    0 -0.26771717148E+02 -0.25624435997E+01  0.16903199506E+03  0.17122265127E+03  0.46999998093E+01 0. -1.
        5    1    3    3  502    0  0.17001878011E+02 -0.59374255017E+02  0.53550497635E+03  0.53907516703E+03  0.46999998093E+01 0. -1.
       -5    1    3    3    0  502 -0.56524767011E+02  0.34160638435E+02  0.10209933784E+04  0.10231380978E+04  0.46999998093E+01 0. -1.
</event>
<event>
10   0  0.1583500E-03  0.1960781E+03  0.7818609E-02  0.1162825E+00
       21   -1    0    0  501  503  0.00000000000E+00  0.00000000000E+00  0.34467732249E+02  0.34467732249E+02  0.00000000000E+00 0. -1.
        2   -1    0    0  503    0  0.00000000000E+00  0.00000000000E+00 -0.17669937315E+04  0.17669937315E+04  0.25500000920E-02 0. -1.
       25    2    1    2    0    0  0.58247007752E+02  0.73359639541E+02 -0.14451464008E+04  0.14535625727E+04  0.12498672932E+03 0.  0.
        6    2    1    2  501    0 -0.58247007752E+02 -0.73359639541E+02 -0.28737959846E+03  0.34789889102E+03  0.17225636167E+03 0.  0.
       24    2    4    4    0    0 -0.78076181363E+02 -0.43916226660E+02 -0.28799528751E+03  0.31208576829E+03  0.80197980540E+02 0.  0.
      -15    1    5    5    0    0 -0.40306862947E+01  0.17161711854E+02 -0.93859330809E+02  0.95517027249E+02  0.17769999504E+01 0.  1.
       16    1    5    5    0    0 -0.74045495069E+02 -0.61077938515E+02 -0.19413595670E+03  0.21656874105E+03  0.00000000000E+00 0. -1.
        5    1    4    4  501    0  0.19829173611E+02 -0.29443412881E+02  0.61568904873E+00  0.35813122726E+02  0.46999998093E+01 0. -1.
        5    1    3    3  502    0 -0.16073358414E+02  0.10980274510E+02 -0.37017897217E+02  0.42087218863E+02  0.46999998093E+01 0. -1.
       -5    1    3    3    0  502  0.74320366167E+02  0.62379365031E+02 -0.14081285036E+04  0.14114753539E+04  0.46999998093E+01 0. -1.
</event>
<event>
10   0  0.1583500E-03  0.1609885E+03  0.7818609E-02  0.1195806E+00
        2   -1    0    0  503    0  0.00000000000E+00  0.00000000000E+00  0.75788251761E+03  0.75788251762E+03  0.00000000000E+00 0.  1.
       21   -1    0    0  501  503  0.00000000000E+00  0.00000000000E+00 -0.55163330618E+02  0.55163330618E+02  0.25500000920E-02 0.  1.
       25    2    1    2    0    0 -0.47405241849E+02  0.13043004687E+02  0.61542635382E+03  0.62991385194E+03  0.12499794781E+03 0.  0.
        6    2    1    2  501    0  0.47405241849E+02 -0.13043004687E+02  0.87292833170E+02  0.18313199630E+03  0.15329681151E+03 0.  0.
       24    2    4    4    0    0  0.47218508831E+02  0.11889495051E+02  0.11317160214E+03  0.14689023731E+03  0.79987390361E+02 0.  0.
      -13    1    5    5    0    0  0.36556201683E+02 -0.26751578208E+02  0.89569238213E+02  0.10037261786E+03  0.10565999895E+00 0.  1.
       14    1    5    5    0    0  0.10662307148E+02  0.38641073258E+02  0.23602363932E+02  0.46517619452E+02  0.00000000000E+00 0. -1.
        5    1    4    4  501    0  0.18673301772E+00 -0.24932499738E+02 -0.25878768974E+02  0.36241758984E+02  0.46999998093E+01 0. -1.
        5    1    3    3  502    0 -0.33167518055E+02 -0.52602440279E+02  0.37855698846E+03  0.38365946423E+03  0.46999998093E+01 0. -1.
       -5    1    3    3    0  502 -0.14237723793E+02  0.65645444966E+02  0.23686936536E+03  0.24625438771E+03  0.46999998093E+01 0. -1.
</event>
<event>
10   0  0.1583500E-03  0.2826515E+03  0.7818609E-02  0.1097639E+00
       21   -1    0    0  501  503  0.00000000000E+00  0.00000000000E+00  0.15516791901E+03  0.15516791901E+03  0.00000000000E+00 0.  1.
        4   -1    0    0  503    0  0.00000000000E+00  0.00000000000E+00 -0.66005606861E+03  0.66005729039E+03  0.12699999809E+01 0.  1.
       25    2    1    2    0    0 -0.16880543099E+03 -0.15098837456E+03 -0.46178719559E+03  0.52930635799E+03  0.12500017523E+03 0.  0.
        6    2    1    2  501    0  0.16880543099E+03  0.15098837456E+03 -0.43100954008E+02  0.28591885142E+03  0.16911278655E+03 0.  0.
       24    2    4    4    0    0  0.40510204460E+02  0.78251487916E+01 -0.25837118033E+02  0.92850199395E+02  0.79065120251E+02 0.  0.
      -13    1    5    5    0    0  0.37793423633E+02  0.39958472618E+02 -0.68435157379E+01  0.55424428509E+02  0.10565999895E+00 0.  1.
       14    1    5    5    0    0  0.27167808268E+01 -0.32133323826E+02 -0.18993602295E+02  0.37425770885E+02  0.00000000000E+00 0. -1.
        5    1    4    4  501    0  0.12829522653E+03  0.14316322576E+03 -0.17263835975E+02  0.19306865202E+03  0.46999998093E+01 0. -1.
        5    1    3    3  502    0 -0.51030878781E+02  0.14009606521E+02 -0.67177797967E+02  0.85646752431E+02  0.46999998093E+01 0. -1.
       -5    1    3    3    0  502 -0.11777455221E+03 -0.16499798108E+03 -0.39460939763E+03  0.44365960555E+03  0.46999998093E+01 0. -1.
</event>
<event>
10   0  0.1583500E-03  0.1921391E+03  0.7818609E-02  0.1167004E+00
       21   -1    0    0  501  503  0.00000000000E+00  0.00000000000E+00  0.21605553899E+02  0.21605553899E+02  0.00000000000E+00 0.  1.
        2   -1    0    0  503    0  0.00000000000E+00  0.00000000000E+00 -0.16929930506E+04  0.16929930506E+04  0.25500000920E-02 0.  1.
       25    2    1    2    0    0 -0.69551472972E+02  0.47525428500E+02 -0.11323934309E+04  0.11423818206E+04  0.12500107179E+03 0.  0.
        6    2    1    2  501    0  0.69551472972E+02 -0.47525428500E+02 -0.53899406585E+03  0.57221678395E+03  0.17268865355E+03 0.  0.
       24    2    4    4    0    0  0.15194169509E+02 -0.59858668214E+02 -0.16154298589E+03  0.19064341879E+03  0.80217541027E+02 0.  0.
      -11    1    5    5    0    0 -0.35596222603E+01 -0.75350331226E+02 -0.10695001578E+03  0.13087646543E+03  0.51099999109E-03 0.  1.
       12    1    5    5    0    0  0.18753791769E+02  0.15491663012E+02 -0.54592970107E+02  0.59766953358E+02  0.00000000000E+00 0. -1.
        5    1    4    4  501    0  0.54357303462E+02  0.12333239715E+02 -0.37745107996E+03  0.38157336516E+03  0.46999998093E+01 0. -1.
        5    1    3    3  502    0 -0.51110176348E+02 -0.30381139416E+01 -0.15121469764E+03  0.15971679638E+03  0.46999998093E+01 0.  1.
       -5    1    3    3    0  502 -0.18441296624E+02  0.50563542441E+02 -0.98117873325E+03  0.98266502422E+03  0.46999998093E+01 0.  1.
</event>
<event>
10   0  0.1583500E-03  0.1817059E+03  0.7818609E-02  0.1179031E+00
        4   -1    0    0  503    0  0.00000000000E+00  0.00000000000E+00  0.19166051625E+03  0.19166472391E+03  0.00000000000E+00 0.  1.
       21   -1    0    0  501  503  0.00000000000E+00  0.00000000000E+00 -0.14870246973E+03  0.14870246973E+03  0.12699999809E+01 0.  1.
       25    2    1    2    0    0 -0.25822652444E+02  0.45641768850E+02  0.76414698155E+02  0.15560685451E+03  0.12499722651E+03 0.  0.
        6    2    1    2  501    0  0.25822652444E+02 -0.45641768850E+02 -0.33456651632E+02  0.18476033912E+03  0.17397429388E+03 0.  0.
       24    2    4    4    0    0 -0.47032829570E+02  0.31502034710E+01 -0.99956025764E+01  0.93869808025E+02  0.80558165003E+02 0.  0.
      -15    1    5    5    0    0 -0.40279768170E+02 -0.35725503697E+02 -0.51374303223E+01  0.54113974696E+02  0.17769999504E+01 0.  1.
       16    1    5    5    0    0 -0.67530614002E+01  0.38875707168E+02 -0.48581722541E+01  0.39755833330E+02  0.00000000000E+00 0. -1.
        5    1    4    4  501    0  0.72855482014E+02 -0.48791972321E+02 -0.23461049056E+02  0.90890531099E+02  0.46999998093E+01 0. -1.
        5    1    3    3  502    0  0.25405740880E+02 -0.26029436762E+02 -0.31438030669E+01  0.36809737078E+02  0.46999998093E+01 0. -1.
       -5    1    3    3    0  502 -0.51228393324E+02  0.71671205612E+02  0.79558501222E+02  0.11879711744E+03  0.46999998093E+01 0. -1.
</event>
<event>
10   0  0.1583500E-03  0.2697080E+03  0.7818609E-02  0.1106065E+00
        2   -1    0    0  503    0  0.00000000000E+00  0.00000000000E+00  0.98507800767E+03  0.98507800767E+03  0.00000000000E+00 0. -1.
       21   -1    0    0  501  503  0.00000000000E+00  0.00000000000E+00 -0.11854504650E+03  0.11854504650E+03  0.25500000920E-02 0. -1.
       25    2    1    2    0    0 -0.20410316789E+03 -0.71364304984E+01  0.78672202589E+03  0.82235416417E+03  0.12500317407E+03 0.  0.
        6    2    1    2  501    0  0.20410316789E+03  0.71364304984E+01  0.79810935280E+02  0.28126889000E+03  0.17616291127E+03 0.  0.
       24    2    4    4    0    0  0.23087952680E+02  0.26993294042E+02  0.17208452455E+02  0.88650188880E+02  0.79379050576E+02 0.  0.
      -13    1    5    5    0    0  0.13453111126E+02 -0.24143360192E+02 -0.10657409180E+02  0.29622281728E+02  0.10565999895E+00 0.  1.
       14    1    5    5    0    0  0.96348415543E+01  0.51136654234E+02  0.27865861635E+02  0.59027907151E+02  0.00000000000E+00 0. -1.
        5    1    4    4  501    0  0.18101521521E+03 -0.19856863544E+02  0.62602482826E+02  0.19261870112E+03  0.46999998093E+01 0. -1.
        5    1    3    3  502    0 -0.18309907598E+03 -0.28456404986E+02  0.75894598581E+03  0.78125292830E+03  0.46999998093E+01 0. -1.
       -5    1    3    3    0  502 -0.21004091909E+02  0.21319974487E+02  0.27776040078E+02  0.41101235865E+02  0.46999998093E+01 0. -1.
</event>
<event>
10   0  0.1583500E-03  0.1847749E+03  0.7818609E-02  0.1174736E+00
       21   -1    0    0  501  503  0.00000000000E+00  0.00000000000E+00  0.35961399757E+03  0.35961399757E+03  0.00000000000E+00 0. -1.
        2   -1    0    0  503    0  0.00000000000E+00  0.00000000000E+00 -0.13940204480E+03  0.13940204482E+03  0.25500000920E-02 0. -1.
       25    2    1    2    0    0 -0.59858346482E+02 -0.31184443352E+02 -0.67349543601E+02  0.15720706687E+03  0.12499043844E+03 0.  0.
        6    2    1    2  501    0  0.59858346482E+02  0.31184443352E+02  0.28756149637E+03  0.34180897552E+03  0.17200659988E+03 0.  0.
       24    2    4    4    0    0  0.25473907122E+02  0.81681805729E+02  0.14421535925E+03  0.18591645388E+03  0.80287113844E+02 0.  0.
      -15    1    5    5    0    0 -0.12565686772E+02  0.13831008155E+02 -0.33846306863E+01  0.19073718157E+02  0.17769999504E+01 0.  1.
       16    1    5    5    0    0  0.38039593894E+02  0.67850797573E+02  0.14759998994E+03  0.16684273572E+03  0.00000000000E+00 0. -1.
        5    1    4    4  501    0  0.34384439360E+02 -0.50497362377E+02  0.14334613712E+03  0.15589252164E+03  0.46999998093E+01 0. -1.
        5    1    3    3  502    0 -0.51225921543E+02 -0.77934067925E+02 -0.36063673941E+02  0.10010241035E+03  0.46999998093E+01 0.  1.
       -5    1    3    3    0  502 -0.86324249388E+01  0.46749624573E+02 -0.31285869660E+02  0.57104656523E+02  0.46999998093E+01 0.  1.
</event>
<event>
10   0  0.1583500E-03  0.2637745E+03  0.7818609E-02  0.1107839E+00
        2   -1    0    0  503    0  0.00000000000E+00  0.00000000000E+00  0.18039686511E+04  0.18039686511E+04  0.00000000000E+00 0. -1.
       21   -1    0    0  501  503  0.00000000000E+00  0.00000000000E+00 -0.40305256909E+02  0.40305256909E+02  0.25500000920E-02 0.  1.
       25    2    1    2    0    0  0.20878300316E+03 -0.24770238879E+02  0.11598265538E+04  0.11853384716E+04  0.12500300137E+03 0.  0.
        6    2    1    2  501    0 -0.20878300316E+03  0.24770238879E+02  0.60383684040E+03  0.65893543636E+03  0.15928927246E+03 0.  0.
       24    2    4    4    0    0 -0.12402564703E+03 -0.44379534169E+02  0.38125578232E+03  0.41088318794E+03  0.78212009346E+02 0.  0.
      -13    1    5    5    0    0 -0.50314341105E+02 -0.83695842368E+01  0.57351864815E+02  0.76751745406E+02  0.10565999895E+00 0.  1.
       14    1    5    5    0    0 -0.73711305924E+02 -0.36009949932E+02  0.32390391750E+03  0.33413144253E+03  0.00000000000E+00 0. -1.
        5    1    4    4  501    0 -0.84757356132E+02  0.69149773048E+02  0.22258105808E+03  0.24805224842E+03  0.46999998093E+01 0. -1.
        5    1    3    3  502    0  0.18961232853E+03 -0.28988275503E+02  0.72241542272E+03  0.74746189751E+03  0.46999998093E+01 0.  1.
       -5    1    3    3    0  502  0.19170674632E+02  0.42180366242E+01  0.43741113103E+03  0.43787657410E+03  0.46999998093E+01 0.  1.
</event>
<event>
10   0  0.1583500E-03  0.2127770E+03  0.7818609E-02  0.1146796E+00
       21   -1    0    0  501  503  0.00000000000E+00  0.00000000000E+00  0.29738901149E+02  0.29738901149E+02  0.00000000000E+00 0.  1.
       -2   -1    0    0    0  501  0.00000000000E+00  0.00000000000E+00 -0.18494591075E+04  0.18494591075E+04  0.25500000920E-02 0.  1.
       25    2    1    2    0    0  0.10584381840E+03 -0.69996174509E+02 -0.13717137746E+04  0.13832304344E+04  0.12500150669E+03 0.  0.
       -6    2    1    2    0  503 -0.10584381840E+03  0.69996174509E+02 -0.44800643167E+03  0.49596757425E+03  0.17079722933E+03 0.  0.
      -24    2    4    4    0    0 -0.14653685097E+02  0.12447737141E+02 -0.29496977767E+03  0.30869832819E+03  0.88982084932E+02 0.  0.
       15    1    5    5    0    0  0.23785554567E+02  0.32561417395E+02 -0.82498440937E+02  0.91843067210E+02  0.17769999504E+01 0. -1.
      -16    1    5    5    0    0 -0.38439239664E+02 -0.20113680253E+02 -0.21247133674E+03  0.21685526098E+03  0.00000000000E+00 0.  1.
       -5    1    4    4    0  503 -0.91190133298E+02  0.57548437368E+02 -0.15303665400E+03  0.18726924606E+03  0.46999998093E+01 0.  1.
        5    1    3    3  502    0  0.28890524335E+02  0.55369146378E+01 -0.84737612162E+03  0.84789958209E+03  0.46999998093E+01 0.  1.
       -5    1    3    3    0  502  0.76953294060E+02 -0.75533089147E+02 -0.52433765303E+03  0.53533085228E+03  0.46999998093E+01 0.  1.
</event>
<event>
10   0  0.1583500E-03  0.1938008E+03  0.7818609E-02  0.1167696E+00
        2   -1    0    0  503    0  0.00000000000E+00  0.00000000000E+00  0.12521451780E+04  0.12521451780E+04  0.00000000000E+00 0. -1.
       21   -1    0    0  501  503  0.00000000000E+00  0.00000000000E+00 -0.34393974046E+02  0.34393974046E+02  0.25500000920E-02 0. -1.
       25    2    1    2    0    0 -0.46168602314E+02 -0.56076503039E+02  0.91988012525E+03  0.93117181547E+03  0.12500156430E+03 0.  0.
        6    2    1    2  501    0  0.46168602314E+02  0.56076503039E+02  0.29787107867E+03  0.35536733654E+03  0.17967373302E+03 0.  0.
       24    2    4    4    0    0  0.78561903783E+02 -0.15449758996E+02  0.14588218590E+03  0.18422983140E+03  0.79046510587E+02 0.  0.
      -13    1    5    5    0    0  0.37136029824E+02 -0.39784686066E+02  0.11469001960E+03  0.12694769678E+03  0.10565999895E+00 0.  1.
       14    1    5    5    0    0  0.41425873959E+02  0.24334927071E+02  0.31192166299E+02  0.57282134626E+02  0.00000000000E+00 0. -1.
        5    1    4    4  501    0 -0.32393301469E+02  0.71526262034E+02  0.15198889277E+03  0.17113750514E+03  0.46999998093E+01 0. -1.
        5    1    3    3  502    0 -0.78844852405E+02 -0.53232677240E+02  0.44210046605E+03  0.45224455857E+03  0.46999998093E+01 0. -1.
       -5    1    3    3    0  502  0.32676250091E+02 -0.28438257982E+01  0.47777965920E+03  0.47892725690E+03  0.46999998093E+01 0. -1.
</event>
<event>
10   0  0.1583500E-03  0.2004781E+03  0.7818609E-02  0.1158725E+00
       21   -1    0    0  501  503  0.00000000000E+00  0.00000000000E+00  0.37469394556E+02  0.37469394556E+02  0.00000000000E+00 0.  1.
        2   -1    0    0  503    0  0.00000000000E+00  0.00000000000E+00 -0.15544957866E+04  0.15544957866E+04  0.25500000920E-02 0. -1.
       25    2    1    2    0    0  0.93057143984E+02 -0.39433731377E+02 -0.12379611323E+04  0.12483536296E+04  0.12499747350E+03 0.  0.
        6    2    1    2  501    0 -0.93057143984E+02  0.39433731377E+02 -0.27906525975E+03  0.34361155151E+03  0.17313817578E+03 0.  0.
       24    2    4    4    0    0 -0.31873750526E+02 -0.35721912775E+01 -0.44680970122E+02  0.97540419023E+02  0.80554625746E+02 0.  0.
      -13    1    5    5    0    0 -0.58858230802E+02  0.24279504839E-01 -0.35868838548E+02  0.68926603466E+02  0.10565999895E+00 0.  1.
       14    1    5    5    0    0  0.26984480276E+02 -0.35964707823E+01 -0.88121315743E+01  0.28613815557E+02  0.00000000000E+00 0. -1.
        5    1    4    4  501    0 -0.61183393458E+02  0.43005922654E+02 -0.23438428963E+03  0.24607113248E+03  0.46999998093E+01 0. -1.
        5    1    3    3  502    0  0.16640998154E+02  0.37130308350E+02 -0.16770340576E+03  0.17263286164E+03  0.46999998093E+01 0.  1.
       -5    1    3    3    0  502  0.76416145830E+02 -0.76564039727E+02 -0.10702577265E+04  0.10757207680E+04  0.46999998093E+01 0.  1.
</event>
<event>
10   0  0.1583500E-03  0.2680075E+03  0.7818609E-02  0.1106550E+00
       -2   -1    0    0    0  501  0.00000000000E+00  0.00000000000E+00  0.52100984325E+02  0.52100984388E+02  0.00000000000E+00 0.  1.
       21   -1    0    0  501  503  0.00000000000E+00  0.00000000000E+00 -0.14749389192E+04  0.14749389192E+04  0.25500000920E-02 0.  1.
       25    2    1    2    0    0 -0.44133976366E+02 -0.20128871881E+03 -0.37739614829E+03  0.44779176803E+03  0.12499863432E+03 0.  0.
       -6    2    1    2    0  503  0.44133976366E+02  0.20128871881E+03 -0.10454417866E+04  0.10792481356E+04  0.17135650785E+03 0.  0.
      -24    2    4    4    0    0  0.74199058378E+02  0.15031849767E+03 -0.94137334558E+03  0.95943910831E+03  0.78984022298E+02 0.  0.
       11    1    5    5    0    0  0.66353213022E+02  0.47982459807E+02 -0.37426596514E+03  0.38311888232E+03  0.51099999109E-03 0. -1.
      -12    1    5    5    0    0  0.78458453560E+01  0.10233603787E+03 -0.56710738044E+03  0.57632022599E+03  0.00000000000E+00 0.  1.
       -5    1    4    4    0  503 -0.30065082012E+02  0.50970221134E+02 -0.10406844100E+03  0.11980902724E+03  0.46999998093E+01 0.  1.
        5    1    3    3  502    0 -0.39617454450E+02 -0.21134198347E+03 -0.37893038225E+03  0.43571240660E+03  0.46999998093E+01 0.  1.
       -5    1    3    3    0  502 -0.45165219152E+01  0.10053264665E+02  0.15342339548E+01  0.12079361434E+02  0.46999998093E+01 0.  1.
</event>
<event>
10   0  0.1583500E-03  0.1915499E+03  0.7818609E-02  0.1167122E+00
       21   -1    0    0  501  503  0.00000000000E+00  0.00000000000E+00  0.12657046732E+03  0.12657046732E+03  0.00000000000E+00 0. -1.
        2   -1    0    0  503    0  0.00000000000E+00  0.00000000000E+00 -0.37194953032E+03  0.37194953033E+03  0.25500000920E-02 0. -1.
       25    2    1    2    0    0  0.85975622689E+02 -0.11944383840E+01 -0.26562732946E+03  0.30590285096E+03  0.12500176674E+03 0.  0.
        6    2    1    2  501    0 -0.85975622689E+02  0.11944383840E+01  0.20248266461E+02  0.19261714669E+03  0.17116699017E+03 0.  0.
       24    2    4    4    0    0 -0.88219738420E+02  0.46254211429E+01 -0.44865875923E+02  0.12720499770E+03  0.79774982608E+02 0.  0.
      -11    1    5    5    0    0 -0.12769895483E+02  0.32733320717E+02 -0.28033184385E+02  0.44948859193E+02  0.51099999109E-03 0.  1.
       12    1    5    5    0    0 -0.75449842938E+02 -0.28107899574E+02 -0.16832691539E+02  0.82256138508E+02  0.00000000000E+00 0. -1.
        5    1    4    4  501    0  0.22441157315E+01 -0.34309827590E+01  0.65114142384E+02  0.65412148984E+02  0.46999998093E+01 0. -1.
        5    1    3    3  502    0  0.20603648512E+02 -0.60026059686E+02 -0.10976139481E+03  0.12687510379E+03  0.46999998093E+01 0. -1.
       -5    1    3    3    0  502  0.65371974177E+02  0.58831621302E+02 -0.15586593466E+03  0.17902774717E+03  0.46999998093E+01 0. -1.
</event>
<event>
10   0  0.1583500E-03  0.2020289E+03  0.7818609E-02  0.1156590E+00
        2   -1    0    0  503    0  0.00000000000E+00  0.00000000000E+00  0.10815139660E+04  0.10815139660E+04  0.00000000000E+00 0. -1.
       21   -1    0    0  501  503  0.00000000000E+00  0.00000000000E+00 -0.31870446851E+02  0.31870446851E+02  0.25500000920E-02 0.  1.
       25    2    1    2    0    0  0.13694785518E+02 -0.10700484962E+03  0.55604363770E+03  0.58003974054E+03  0.12499595430E+03 0.  0.
        6    2    1    2  501    0 -0.13694785518E+02  0.10700484962E+03  0.49359988149E+03  0.53334467235E+03  0.17081601659E+03 0.  0.
       24    2    4    4    0    0 -0.55437554348E+02  0.11936385311E+03  0.34833957322E+03  0.38162832229E+03  0.83538411791E+02 0.  0.
      -15    1    5    5    0    0  0.71055728605E+01  0.56316856520E+02  0.74046651343E+02  0.93317424943E+02  0.17769999504E+01 0.  1.
       16    1    5    5    0    0 -0.62543127209E+02  0.63046996594E+02  0.27429292187E+03  0.28831089735E+03  0.00000000000E+00 0. -1.
        5    1    4    4  501    0  0.41742768830E+02 -0.12359003490E+02  0.14526030828E+03  0.15171635006E+03  0.46999998093E+01 0. -1.
        5    1    3    3  502    0  0.56119399698E+02 -0.70351032511E+02  0.45988488672E+03  0.46863082894E+03  0.46999998093E+01 0.  1.
       -5    1    3    3    0  502 -0.42424614180E+02 -0.36653817114E+02  0.96158750972E+02  0.11140891160E+03  0.46999998093E+01 0.  1.
</event>
<event>
10   0  0.1583500E-03  0.2021716E+03  0.7818609E-02  0.1156718E+00
        2   -1    0    0  503    0  0.00000000000E+00  0.00000000000E+00  0.21113843733E+03  0.21113843735E+03  0.00000000000E+00 0. -1.
       21   -1    0    0  501  503  0.00000000000E+00  0.00000000000E+00 -0.17394264120E+03  0.17394264120E+03  0.25500000920E-02 0. -1.
       25    2    1    2    0    0 -0.10588811396E+03  0.12156078253E+02  0.73006816271E+02  0.17976238485E+03  0.12499782745E+03 0.  0.
        6    2    1    2  501    0  0.10588811396E+03 -0.12156078253E+02 -0.35811020137E+02  0.20531869370E+03  0.17179427785E+03 0.  0.
       24    2    4    4    0    0 -0.38964640941E+01  0.27824281614E+02 -0.32902088616E+01  0.83948285784E+02  0.79038700216E+02 0.  0.
      -13    1    5    5    0    0  0.28108479874E+02  0.40631083179E+02 -0.14732350877E+01  0.49428262632E+02  0.10565999895E+00 0.  1.
       14    1    5    5    0    0 -0.32004943968E+02 -0.12806801565E+02 -0.18169737739E+01  0.34520023152E+02  0.00000000000E+00 0. -1.
        5    1    4    4  501    0  0.10978457806E+03 -0.39980359866E+02 -0.32520811275E+02  0.12137040792E+03  0.46999998093E+01 0. -1.
        5    1    3    3  502    0 -0.63924565257E+02  0.68478078099E+02  0.38916397455E+02  0.10154887106E+03  0.46999998093E+01 0.  1.
       -5    1    3    3    0  502 -0.41963548706E+02 -0.56321999847E+02  0.34090418816E+02  0.78213513793E+02  0.46999998093E+01 0.  1.
</event>
<event>
10   0  0.1583500E-03  0.1726649E+03  0.7818609E-02  0.1188582E+00
       21   -1    0    0  501  503  0.00000000000E+00  0.00000000000E+00  0.16843845918E+03  0.16843845918E+03  0.00000000000E+00 0.  1.
        2   -1    0    0  503    0  0.00000000000E+00  0.00000000000E+00 -0.13739968973E+03  0.13739968975E+03  0.25500000920E-02 0.  1.
       25    2    1    2    0    0 -0.48492128366E+01  0.25358334084E+02 -0.11065239135E+02  0.12811386420E+03  0.12499665080E+03 0.  0.
        6    2    1    2  501    0  0.48492128366E+01 -0.25358334084E+02  0.42104008588E+02  0.17772428474E+03  0.17072379410E+03 0.  0.
       24    2    4    4    0    0 -0.19128128765E+02  0.50005868948E+02  0.17789503069E+02  0.94851121494E+02  0.76248256308E+02 0.  0.
      -15    1    5    5    0    0  0.82629114533E+01 -0.17950220029E+02  0.51775839142E+01  0.20504906944E+02  0.17769999504E+01 0.  1.
       16    1    5    5    0    0 -0.27391040218E+02  0.67956088976E+02  0.12611919154E+02  0.74346214550E+02  0.00000000000E+00 0. -1.
        5    1    4    4  501    0  0.23977341601E+02 -0.75364203032E+02  0.24314505520E+02  0.82873163242E+02  0.46999998093E+01 0. -1.
        5    1    3    3  502    0  0.54271634684E+02  0.37023011302E+02  0.34376454780E+01  0.65954689764E+02  0.46999998093E+01 0.  1.
       -5    1    3    3    0  502 -0.59120847521E+02 -0.11664677217E+02 -0.14502884613E+02  0.62159174435E+02  0.46999998093E+01 0.  1.
</event>
<event>
10   0  0.1583500E-03  0.4037056E+03  0.7818609E-02  0.1044016E+00
        2   -1    0    0  503    0  0.00000000000E+00  0.00000000000E+00  0.60445476220E+03  0.60445476221E+03  0.00000000000E+00 0. -1.
       21   -1    0    0  501  503  0.00000000000E+00  0.00000000000E+00 -0.27130285465E+03  0.27130285465E+03  0.25500000920E-02 0.  1.
       25    2    1    2    0    0 -0.15273933893E+03  0.33223787535E+03  0.25924417420E+03  0.46534246737E+03  0.12499903440E+03 0.  0.
        6    2    1    2  501    0  0.15273933893E+03 -0.33223787535E+03  0.73907733351E+02  0.41041514949E+03  0.17107580310E+03 0.  0.
       24    2    4    4    0    0  0.53943642987E+02 -0.59939996921E+02  0.97039491510E+01  0.11368136301E+03  0.79539712203E+02 0.  0.
      -11    1    5    5    0    0  0.73158815586E+02 -0.53121750132E+02 -0.14868428022E+01  0.90423134965E+02  0.51099999109E-03 0.  1.
       12    1    5    5    0    0 -0.19215172600E+02 -0.68182467883E+01  0.11190791953E+02  0.23258228046E+02  0.00000000000E+00 0. -1.
        5    1    4    4  501    0  0.98795695948E+02 -0.27229787843E+03  0.64203784200E+02  0.29673378648E+03  0.46999998093E+01 0. -1.
        5    1    3    3  502    0 -0.92698811694E+02  0.28748409024E+03  0.24503015084E+03  0.38897562475E+03  0.46999998093E+01 0. -1.
       -5    1    3    3    0  502 -0.60040527241E+02  0.44753785110E+02  0.14214023365E+02  0.76366842618E+02  0.46999998093E+01 0. -1.
</event>
<event>
10   0  0.1583500E-03  0.2038467E+03  0.7818609E-02  0.1154841E+00
        2   -1    0    0  503    0  0.00000000000E+00  0.00000000000E+00  0.99637179374E+03  0.99637179374E+03  0.00000000000E+00 0. -1.
       21   -1    0    0  501  503  0.00000000000E+00  0.00000000000E+00 -0.69525337025E+02  0.69525337025E+02  0.25500000920E-02 0. -1.
       25    2    1    2    0    0  0.59161886718E+02  0.94458050485E+02  0.81769406518E+03  0.83466624249E+03  0.12498679926E+03 0.  0.
        6    2    1    2  501    0 -0.59161886718E+02 -0.94458050485E+02  0.10915239154E+03  0.23123088827E+03  0.17067813853E+03 0.  0.
       24    2    4    4    0    0  0.20193551580E+02 -0.96000266651E+02  0.61663838021E+02  0.13861924359E+03  0.76085708586E+02 0.  0.
      -15    1    5    5    0    0 -0.91984510692E+01 -0.74432733074E+02  0.10434146277E+02  0.75742144096E+02  0.17769999504E+01 0.  1.
       16    1    5    5    0    0  0.29392002650E+02 -0.21567533577E+02  0.51229691744E+02  0.62877099492E+02  0.00000000000E+00 0. -1.
        5    1    4    4  501    0 -0.79355438299E+02  0.15422161656E+01  0.47488553517E+02  0.92611644687E+02  0.46999998093E+01 0. -1.
        5    1    3    3  502    0  0.81371069286E+02  0.16466995041E+02  0.33376094712E+03  0.34396347577E+03  0.46999998093E+01 0. -1.
       -5    1    3    3    0  502 -0.22209182568E+02  0.77991055444E+02  0.48393311805E+03  0.49070276672E+03  0.46999998093E+01 0. -1.
</event>
<event>
10   0  0.1583500E-03  0.2590205E+03  0.7818609E-02  0.1111880E+00
       -2   -1    0    0    0  501  0.00000000000E+00  0.00000000000E+00  0.73465875056E+03  0.73465875057E+03  0.00000000000E+00 0. -1.
       21   -1    0    0  501  503  0.00000000000E+00  0.00000000000E+00 -0.21012546430E+03  0.21012546430E+03  0.25500000920E-02 0.  1.
       25    2    1    2    0    0  0.11604264740E+03 -0.15880526529E+03  0.62494377568E+03  0.66698236965E+03  0.12500300140E+03 0.  0.
       -6    2    1    2    0  503 -0.11604264740E+03  0.15880526529E+03 -0.10041048942E+03  0.27780184522E+03  0.16854254811E+03 0.  0.
      -24    2    4    4    0    0 -0.39863310480E+02  0.53999981197E+01 -0.36922644304E+02  0.95074551570E+02  0.77830875568E+02 0.  0.
       13    1    5    5    0    0 -0.51515597555E+02 -0.21754729263E+02 -0.13919211580E+02  0.57627082625E+02  0.10565999895E+00 0. -1.
      -14    1    5    5    0    0  0.11652287075E+02  0.27154727382E+02 -0.23003432724E+02  0.37447468945E+02  0.00000000000E+00 0.  1.
       -5    1    4    4    0  503 -0.76179336920E+02  0.15340526717E+03 -0.63487845117E+02  0.18272729365E+03  0.46999998093E+01 0.  1.
        5    1    3    3  502    0  0.13866034337E+03 -0.15749030066E+03  0.56005010909E+03  0.59808703406E+03  0.46999998093E+01 0. -1.
       -5    1    3    3    0  502 -0.22617695974E+02 -0.13149646280E+01  0.64893666594E+02  0.68895335584E+02  0.46999998093E+01 0. -1.
</event>
<event>
10   0  0.1583500E-03  0.1987011E+03  0.7818609E-02  0.1160336E+00
       21   -1    0    0  501  503  0.00000000000E+00  0.00000000000E+00  0.22245118696E+02  0.22245118696E+02  0.00000000000E+00 0. -1.
        2   -1    0    0  503    0  0.00000000000E+00  0.00000000000E+00 -0.21141234344E+04  0.21141234344E+04  0.25500000920E-02 0. -1.
       25    2    1    2    0    0 -0.95557987652E+02 -0.22999298032E+02 -0.15685165325E+04  0.15765563793E+04  0.12500243105E+03 0.  0.
        6    2    1    2  501    0  0.95557987652E+02  0.22999298032E+02 -0.52336178322E+03  0.55981217379E+03  0.17268994489E+03 0.  0.
       24    2    4    4    0    0  0.20839010019E+02 -0.18476931555E+02 -0.40528538959E+03  0.41397895408E+03  0.79665965539E+02 0.  0.
      -13    1    5    5    0    0  0.42682976183E+02  0.66530060098E+01 -0.13736366130E+03  0.14399613034E+03  0.10565999895E+00 0.  1.
       14    1    5    5    0    0 -0.21843966164E+02 -0.25129937565E+02 -0.26792172829E+03  0.26998282373E+03  0.00000000000E+00 0. -1.
        5    1    4    4  501    0  0.74718977633E+02  0.41476229587E+02 -0.11807639363E+03  0.14583321971E+03  0.46999998093E+01 0. -1.
        5    1    3    3  502    0 -0.46692803225E+02  0.43452786952E+02 -0.39587912877E+03  0.40101214091E+03  0.46999998093E+01 0.  1.
       -5    1    3    3    0  502 -0.48865184427E+02 -0.66452084985E+02 -0.11726374038E+04  0.11755442384E+04  0.46999998093E+01 0.  1.
</event>
<event>
10   0  0.1583500E-03  0.2746024E+03  0.7818609E-02  0.1102979E+00
       -2   -1    0    0    0  501  0.00000000000E+00  0.00000000000E+00  0.12304836686E+03  0.12304836688E+03  0.00000000000E+00 0. -1.
       21   -1    0    0  501  503  0.00000000000E+00  0.00000000000E+00 -0.58952858342E+03  0.58952858342E+03  0.25500000920E-02 0.  1.
       25    2    1    2    0    0 -0.18024553403E+03  0.11053081580E+03 -0.12882847791E+03  0.27735841404E+03  0.12500159736E+03 0.  0.
       -6    2    1    2    0  503  0.18024553403E+03 -0.11053081580E+03 -0.33765173866E+03  0.43521853626E+03  0.17521690532E+03 0.  0.
      -24    2    4    4    0    0  0.13801776170E+02 -0.19489103316E+02 -0.94475520655E+02  0.12675641389E+03  0.81063248669E+02 0.  0.
       13    1    5    5    0    0  0.32867913097E+02  0.20361758306E+02 -0.31718582270E+02  0.50009804419E+02  0.10565999895E+00 0. -1.
      -14    1    5    5    0    0 -0.19066136927E+02 -0.39850861622E+02 -0.62756938384E+02  0.76746609467E+02  0.00000000000E+00 0.  1.
       -5    1    4    4    0  503  0.16644375786E+03 -0.91041712483E+02 -0.24317621800E+03  0.30846212238E+03  0.46999998093E+01 0.  1.
        5    1    3    3  502    0 -0.59075430118E+02  0.93991971159E+02 -0.10459265709E+03  0.15259787352E+03  0.46999998093E+01 0.  1.
       -5    1    3    3    0  502 -0.12117010391E+03  0.16538844640E+02 -0.24235820813E+02  0.12476054052E+03  0.46999998093E+01 0.  1.
</event>
<event>
10   0  0.1583500E-03  0.3253107E+03  0.7818609E-02  0.1075907E+00
        2   -1    0    0  503    0  0.00000000000E+00  0.00000000000E+00  0.89557549057E+03  0.89557549057E+03  0.00000000000E+00 0. -1.
       21   -1    0    0  501  503  0.00000000000E+00  0.00000000000E+00 -0.11877586694E+03  0.11877586694E+03  0.25500000920E-02 0.  1.
       25    2    1    2    0    0  0.40277870299E+01  0.27538696384E+03  0.51299585515E+03  0.59552027159E+03  0.12500177421E+03 0.  0.
        6    2    1    2  501    0 -0.40277870299E+01 -0.27538696384E+03  0.26380376848E+03  0.41883108592E+03  0.17312668004E+03 0.  0.
       24    2    4    4    0    0 -0.15294503276E+02 -0.16392131219E+03  0.24365774133E+03  0.30490355280E+03  0.80578925156E+02 0.  0.
      -13    1    5    5    0    0 -0.31088384511E+02 -0.11850941084E+03  0.11693285237E+03  0.16936431512E+03  0.10565999895E+00 0.  1.
       14    1    5    5    0    0  0.15793881235E+02 -0.45411901350E+02  0.12672488896E+03  0.13553923768E+03  0.00000000000E+00 0. -1.
        5    1    4    4  501    0  0.11266716246E+02 -0.11146565166E+03  0.20146027151E+02  0.11392753312E+03  0.46999998093E+01 0. -1.
        5    1    3    3  502    0 -0.25913615783E+02  0.76082705902E+02  0.62330119099E+02  0.10181958243E+03  0.46999998093E+01 0.  1.
       -5    1    3    3    0  502  0.29941402812E+02  0.19930425794E+03  0.45066573605E+03  0.49370068917E+03  0.46999998093E+01 0.  1.
</event>
<event>
10   0  0.1583500E-03  0.2091435E+03  0.7818609E-02  0.1150582E+00
       21   -1    0    0  501  503  0.00000000000E+00  0.00000000000E+00  0.93644695482E+02  0.93644695482E+02  0.00000000000E+00 0. -1.
        2   -1    0    0  503    0  0.00000000000E+00  0.00000000000E+00 -0.62433581656E+03  0.62433581657E+03  0.25500000920E-02 0.  1.
       25    2    1    2    0    0  0.89329910754E+02 -0.76076448661E+02 -0.46987381967E+03  0.50017384196E+03  0.12500002712E+03 0.  0.
        6    2    1    2  501    0 -0.89329910754E+02  0.76076448661E+02 -0.60817301415E+02  0.21780667009E+03  0.17312868736E+03 0.  0.
       24    2    4    4    0    0  0.15447089925E+02  0.48232868722E+02 -0.38241875117E+01  0.95235099788E+02  0.80561017926E+02 0.  0.
      -13    1    5    5    0    0  0.28868098529E+02  0.26961947902E+02 -0.36648001625E+02  0.53883215703E+02  0.10565999895E+00 0.  1.
       14    1    5    5    0    0 -0.13421008604E+02  0.21270920820E+02  0.32823814113E+02  0.41351884085E+02  0.00000000000E+00 0. -1.
        5    1    4    4  501    0 -0.10477700068E+03  0.27843579939E+02 -0.56993113903E+02  0.12257157030E+03  0.46999998093E+01 0. -1.
        5    1    3    3  502    0  0.48965027145E+02 -0.39509599692E+02 -0.42440349539E+03  0.42906759287E+03  0.46999998093E+01 0. -1.
       -5    1    3    3    0  502  0.40364883609E+02 -0.36566848969E+02 -0.45470324273E+02  0.71106249092E+02  0.46999998093E+01 0. -1.
</event>
<event>
10   0  0.1583500E-03  0.2069521E+03  0.7818609E-02  0.1152120E+00
       21   -1    0    0  501  503  0.00000000000E+00  0.00000000000E+00  0.17857214297E+03  0.17857214297E+03  0.00000000000E+00 0. -1.
       -2   -1    0    0    0  501  0.00000000000E+00  0.00000000000E+00 -0.26134010746E+03  0.26134010747E+03  0.25500000920E-02 0. -1.
       25    2    1    2    0    0  0.11547609320E+03 -0.12396748766E+02 -0.14488251516E+03  0.22383959094E+03  0.12499924716E+03 0.  0.
       -6    2    1    2    0  503 -0.11547609320E+03  0.12396748766E+02  0.62114550663E+02  0.21607265950E+03  0.17129147468E+03 0.  0.
      -24    2    4    4    0    0 -0.19506718933E+02  0.59717320242E+02  0.17478144805E+02  0.10003880234E+03  0.75865710349E+02 0.  0.
       13    1    5    5    0    0 -0.32154513558E+02  0.72983516247E+02  0.17764569092E+02  0.81707389293E+02  0.10565999895E+00 0. -1.
      -14    1    5    5    0    0  0.12647794625E+02 -0.13266196005E+02 -0.28642428796E+00  0.18331413044E+02  0.00000000000E+00 0.  1.
       -5    1    4    4    0  503 -0.95969374271E+02 -0.47320571476E+02  0.44636405858E+02  0.11603385717E+03  0.46999998093E+01 0.  1.
        5    1    3    3  502    0  0.19140397008E+02 -0.56308694880E+02 -0.79216052991E+02  0.99168023911E+02  0.46999998093E+01 0.  1.
       -5    1    3    3    0  502  0.96335696196E+02  0.43911946114E+02 -0.65666462167E+02  0.12467156703E+03  0.46999998093E+01 0.  1.
</event>
<event>
10   0  0.1583500E-03  0.1724665E+03  0.7818609E-02  0.1189591E+00
        2   -1    0    0  503    0  0.00000000000E+00  0.00000000000E+00  0.16944050224E+03  0.16944050226E+03  0.00000000000E+00 0.  1.
       21   -1    0    0  501  503  0.00000000000E+00  0.00000000000E+00 -0.22285458771E+03  0.22285458771E+03  0.25500000920E-02 0.  1.
       25    2    1    2    0    0 -0.43350669809E+01  0.68311177112E+01 -0.14937041963E+03  0.19493166968E+03  0.12498550560E+03 0.  0.
        6    2    1    2  501    0  0.43350669809E+01 -0.68311177112E+01  0.95956334158E+02  0.19736342028E+03  0.17227665142E+03 0.  0.
       24    2    4    4    0    0 -0.12861024857E+02 -0.61595030903E+02  0.25676328064E+02  0.10650000071E+03  0.81997698353E+02 0.  0.
      -15    1    5    5    0    0  0.16723260086E+01  0.13224494499E+02 -0.14968335150E+02  0.20121946105E+02  0.17769999504E+01 0.  1.
       16    1    5    5    0    0 -0.14533350866E+02 -0.74819525402E+02  0.40644663215E+02  0.86378054601E+02  0.00000000000E+00 0. -1.
        5    1    4    4  501    0  0.17196091838E+02  0.54763913192E+02  0.70280006094E+02  0.90863419578E+02  0.46999998093E+01 0. -1.
        5    1    3    3  502    0  0.39882796659E+02 -0.16141793028E+02 -0.13657830917E+03  0.14327218671E+03  0.46999998093E+01 0.  1.
       -5    1    3    3    0  502 -0.44217863640E+02  0.22972910739E+02 -0.12792110463E+02  0.51659482973E+02  0.46999998093E+01 0.  1.
</event>
<event>
10   0  0.1583500E-03  0.1957301E+03  0.7818609E-02  0.1163154E+00
        2   -1    0    0  503    0  0.00000000000E+00  0.00000000000E+00  0.16240859805E+04  0.16240859805E+04  0.00000000000E+00 0. -1.
       21   -1    0    0  501  503  0.00000000000E+00  0.00000000000E+00 -0.22778066715E+02  0.22778066715E+02  0.25500000920E-02 0.  1.
       25    2    1    2    0    0  0.20455953981E+02 -0.90793178161E+02  0.10571657045E+04  0.10685898755E+04  0.12499259176E+03 0.  0.
        6    2    1    2  501    0 -0.20455953981E+02  0.90793178161E+02  0.54414220930E+03  0.57827417173E+03  0.17218718447E+03 0.  0.
       24    2    4    4    0    0 -0.49918838209E+02 -0.44126246971E+01  0.24473744157E+03  0.26268343774E+03  0.81208444702E+02 0.  0.
      -13    1    5    5    0    0  0.19942345318E+02 -0.76387729502E+01  0.29854365560E+02  0.36706161554E+02  0.10565999895E+00 0.  1.
       14    1    5    5    0    0 -0.69861183527E+02  0.32261482531E+01  0.21488307601E+03  0.22597727619E+03  0.00000000000E+00 0. -1.
        5    1    4    4  501    0  0.29462884228E+02  0.95205802858E+02  0.29940476773E+03  0.31559073399E+03  0.46999998093E+01 0. -1.
        5    1    3    3  502    0  0.33267461674E+02 -0.56811038151E+02  0.98908998947E+03  0.99128972321E+03  0.46999998093E+01 0. -1.
       -5    1    3    3    0  502 -0.12811507692E+02 -0.33982140010E+02  0.68075714982E+02  0.77300152248E+02  0.46999998093E+01 0. -1.
</event>
<event>
10   0  0.1583500E-03  0.2088530E+03  0.7818609E-02  0.1149983E+00
       21   -1    0    0  501  503  0.00000000000E+00  0.00000000000E+00  0.42678182951E+02  0.42678182951E+02  0.00000000000E+00 0.  1.
        2   -1    0    0  503    0  0.00000000000E+00  0.00000000000E+00 -0.87505906407E+03  0.87505906407E+03  0.25500000920E-02 0. -1.
       25    2    1    2    0    0  0.20024397183E+02 -0.12027236149E+03 -0.32247883342E+03  0.36672030715E+03  0.12499907300E+03 0.  0.
        6    2    1    2  501    0 -0.20024397183E+02  0.12027236149E+03 -0.50990204770E+03  0.55101693988E+03  0.16956754514E+03 0.  0.
       24    2    4    4    0    0  0.43295610699E+02  0.38424142955E+02 -0.31489857298E+03  0.33020706821E+03  0.80775441584E+02 0.  0.
      -11    1    5    5    0    0  0.11513725148E+02  0.59840565383E+02 -0.18555264906E+03  0.19530295621E+03  0.51099999109E-03 0.  1.
       12    1    5    5    0    0  0.31781885551E+02 -0.21416422429E+02 -0.12934592392E+03  0.13490411200E+03  0.00000000000E+00 0. -1.
        5    1    4    4  501    0 -0.63320007882E+02  0.81848218534E+02 -0.19500347472E+03  0.22080987167E+03  0.46999998093E+01 0. -1.
        5    1    3    3  502    0  0.30445211749E+02  0.14019881838E+02 -0.32374662229E+02  0.46836703106E+02  0.46999998093E+01 0.  1.
       -5    1    3    3    0  502 -0.10420814566E+02 -0.13429224333E+03 -0.29010417119E+03  0.31988360404E+03  0.46999998093E+01 0.  1.
</event>
<event>
10   0  0.1583500E-03  0.2496231E+03  0.7818609E-02  0.1118614E+00
        2   -1    0    0  503    0  0.00000000000E+00  0.00000000000E+00  0.15823555762E+03  0.15823555764E+03  0.00000000000E+00 0. -1.
       21   -1    0    0  501  503  0.00000000000E+00  0.00000000000E+00 -0.35171190891E+03  0.35171190891E+03  0.25500000920E-02 0. -1.
       25    2    1    2    0    0  0.92893581287E+02 -0.15495384693E+03 -0.11683087772E+03  0.24882258654E+03  0.12499325367E+03 0.  0.
        6    2    1    2  501    0 -0.92893581287E+02  0.15495384693E+03 -0.76645473564E+02  0.26112488000E+03  0.17225493379E+03 0.  0.
       24    2    4    4    0    0 -0.32158932313E+01  0.12437238639E+02 -0.27016928631E+02  0.85516925044E+02  0.80113688981E+02 0.  0.
      -15    1    5    5    0    0  0.34026892332E-01 -0.15455363150E+02  0.23228448320E+02  0.27956894465E+02  0.17769999504E+01 0.  1.
       16    1    5    5    0    0 -0.32499201236E+01  0.27892601789E+02 -0.50245376951E+02  0.57560030580E+02  0.00000000000E+00 0. -1.
        5    1    4    4  501    0 -0.89677688056E+02  0.14251660829E+03 -0.49628544933E+02  0.17560795496E+03  0.46999998093E+01 0. -1.
        5    1    3    3  502    0  0.78103264359E+02 -0.38384311692E+02 -0.62123839068E+01  0.87373674522E+02  0.46999998093E+01 0. -1.
       -5    1    3    3    0  502  0.14790316928E+02 -0.11656953524E+03 -0.11061849382E+03  0.16144891202E+03  0.46999998093E+01 0. -1.
</event>
<event>
10   0  0.1583500E-03  0.2184116E+03  0.7818609E-02  0.1141917E+00
        2   -1    0    0  503    0  0.00000000000E+00  0.00000000000E+00  0.22646010937E+04  0.22646010937E+04  0.00000000000E+00 0.  1.
       21   -1    0    0  501  503  0.00000000000E+00  0.00000000000E+00 -0.25041065042E+02  0.25041065042E+02  0.25500000920E-02 0. -1.
       25    2    1    2    0    0 -0.87054858939E+02 -0.10513572137E+03  0.16601062347E+04  0.16703923602E+04  0.12500343287E+03 0.  0.
        6    2    1    2  501    0  0.87054858939E+02  0.10513572137E+03  0.57945379392E+03  0.61924979849E+03  0.17050379838E+03 0.  0.
       24    2    4    4    0    0  0.78934910845E+00 -0.48542657582E+01  0.22012968398E+03  0.23366525336E+03  0.78218833353E+02 0.  0.
      -13    1    5    5    0    0  0.34545572143E+02  0.13661725021E+01  0.16605951618E+03  0.16962027314E+03  0.10565999895E+00 0.  1.
       14    1    5    5    0    0 -0.33756223034E+02 -0.62204382603E+01  0.54070167803E+02  0.64044980225E+02  0.00000000000E+00 0. -1.
        5    1    4    4  501    0  0.86265509831E+02  0.10998998713E+03  0.35932410994E+03  0.38558454512E+03  0.46999998093E+01 0. -1.
        5    1    3    3  502    0  0.25881284161E+02 -0.68158627298E+01  0.48722735792E+03  0.48798451324E+03  0.46999998093E+01 0.  1.
       -5    1    3    3    0  502 -0.11293614310E+03 -0.98319858639E+02  0.11728788768E+04  0.11824078470E+04  0.46999998093E+01 0.  1.
</event>
</LesHouchesEvents>
